 Gaussian 16, Revision A.03,
 Gaussian 16:  ES64L-G16RevA.03 25-Dec-2016

 -------------
 # g4 geom=gic
 -------------

 -------------------
 CAS 367-57-7
 -------------------
 Symbolic Z-matrix:
 Charge =  0 Multiplicity = 1

 SCF Done:  E(RB3LYP) =  -643.539773459     A.U. after   14 cycles
 SCF Done:  E(RB3LYP) =  -643.541188672     A.U. after   12 cycles
 SCF Done:  E(RB3LYP) =  -643.540631460     A.U. after   13 cycles
 SCF Done:  E(RB3LYP) =  -643.541617017     A.U. after   12 cycles
 SCF Done:  E(RB3LYP) =  -643.541661209     A.U. after   10 cycles
 SCF Done:  E(RB3LYP) =  -643.541670060     A.U. after   10 cycles
 SCF Done:  E(RB3LYP) =  -643.541695289     A.U. after   10 cycles
 SCF Done:  E(RB3LYP) =  -643.541696123     A.U. after    8 cycles
 SCF Done:  E(RB3LYP) =  -643.541696706     A.U. after    8 cycles
 SCF Done:  E(RB3LYP) =  -643.541697143     A.U. after    8 cycles
 SCF Done:  E(RB3LYP) =  -643.541697301     A.U. after    8 cycles
 SCF Done:  E(RB3LYP) =  -643.541697363     A.U. after    7 cycles
 SCF Done:  E(RB3LYP) =  -643.541697385     A.U. after    6 cycles
 Optimization completed.
    -- Stationary point found.
 Normal termination of Gaussian 16 at Fri Nov 12 18:29:10 2021.

 ----------------------------------------------------------
 #N Geom=AllCheck Guess=TCheck SCRF=Check B3LYP/GTBas3 Freq
 ----------------------------------------------------------

 Structure from the checkpoint file:  "/home/artemiy/opt/gaussian/scr/Gau-16398.chk"
 -------------------
 Title Card Required
 -------------------
 Charge =  0 Multiplicity = 1

 SCF Done:  E(RB3LYP) =  -643.541697385     A.U. after    1 cycles

  Exact polarizability:  68.944   1.289  62.940   2.086  -0.169  50.045
 Approx polarizability:  86.509   7.518 110.310   2.743   0.717  76.650

                      1                      2                      3
                      A                      A                      A
 Frequencies --     24.3507                40.8670                56.4077
 Red. masses --      6.6483                12.1158                 5.8686
 Frc consts  --      0.0023                 0.0119                 0.0110
 IR Inten    --      1.2881                 1.0746                 4.2699

                      4                      5                      6
                      A                      A                      A
 Frequencies --    150.4195               156.2587               204.3926
 Red. masses --      2.0591                 1.5584                 5.7334
 Frc consts  --      0.0274                 0.0224                 0.1411
 IR Inten    --      2.8562                 1.9948                 7.1364

                      7                      8                      9
                      A                      A                      A
 Frequencies --    225.5851               324.1972               392.5366
 Red. masses --     12.8300                 6.7249                 2.3943
 Frc consts  --      0.3847                 0.4164                 0.2174
 IR Inten    --      1.4321                 0.5247                 1.0882

                     10                     11                     12
                      A                      A                      A
 Frequencies --    418.5536               498.8308               506.3234
 Red. masses --     11.0341                 6.4285                 5.2733
 Frc consts  --      1.1389                 0.9425                 0.7965
 IR Inten    --      2.8469                 9.2637                 0.0141

                     13                     14                     15
                      A                      A                      A
 Frequencies --    535.0244               568.8836               630.0807
 Red. masses --      3.3941                 8.2008                 4.0867
 Frc consts  --      0.5724                 1.5637                 0.9559
 IR Inten    --     13.1956                 7.4931                25.1670

                     16                     17                     18
                      A                      A                      A
 Frequencies --    724.6467               778.7236               827.5216
 Red. masses --      6.3798                 6.7078                 4.0301
 Frc consts  --      1.9738                 2.3966                 1.6260
 IR Inten    --      4.2994                 5.9364                 3.6508

                     19                     20                     21
                      A                      A                      A
 Frequencies --    892.0213               997.6707              1042.0574
 Red. masses --      1.7809                 2.5915                 1.9403
 Frc consts  --      0.8349                 1.5198                 1.2414
 IR Inten    --     10.4183                57.5854                22.6087

                     22                     23                     24
                      A                      A                      A
 Frequencies --   1071.3069              1150.6277              1180.4622
 Red. masses --      2.5736                 1.7702                 9.4082
 Frc consts  --      1.7403                 1.3809                 7.7243
 IR Inten    --    110.1933                92.9613               289.7104

                     25                     26                     27
                      A                      A                      A
 Frequencies --   1214.0819              1243.4363              1262.1772
 Red. masses --      2.3382                 2.8311                 2.2752
 Frc consts  --      2.0306                 2.5790                 2.1356
 IR Inten    --     60.8170                71.8909               180.4150

                     28                     29                     30
                      A                      A                      A
 Frequencies --   1339.3061              1388.2108              1461.1082
 Red. masses --      5.2957                 1.2957                 1.0763
 Frc consts  --      5.5967                 1.4712                 1.3538
 IR Inten    --     28.6191                37.1849                 8.8025

                     31                     32                     33
                      A                      A                      A
 Frequencies --   1470.4747              1473.4376              1818.7568
 Red. masses --      1.0773                 1.0557                11.6318
 Frc consts  --      1.3725                 1.3504                22.6698
 IR Inten    --      6.0073                14.3545               297.7589

                     34                     35                     36
                      A                      A                      A
 Frequencies --   1849.9464              3038.4312              3070.5799
 Red. masses --     11.2464                 1.0394                 1.0601
 Frc consts  --     22.6769                 5.6538                 5.8891
 IR Inten    --     18.7045                 1.7073                 0.4807

                     37                     38                     39
                      A                      A                      A
 Frequencies --   3105.7319              3155.7164              3160.4540
 Red. masses --      1.0936                 1.1034                 1.1040
 Frc consts  --      6.2151                 6.4739                 6.4971
 IR Inten    --      2.5097                 1.5330                 4.0816

 - Thermochemistry -
 -------------------
 Temperature   298.150 Kelvin.  Pressure   1.00000 Atm.
 Atom     1 has atomic number  6 and mass  12.00000

 Molecular mass:   154.02416 amu.
 Principal axes and moments of inertia in atomic units:
                           1         2         3
     Eigenvalues --   790.028472034.761742336.60821
           X            0.99970  -0.02422   0.00293
           Y            0.02425   0.99963  -0.01215
           Z           -0.00263   0.01221   0.99992
 This molecule is an asymmetric top.
 Rotational symmetry number  1.
 Warning -- assumption of classical behavior for rotation
           may cause significant error
 Rotational temperatures (Kelvin)      0.10963     0.04257     0.03707
 Rotational constants (GHZ):           2.28440     0.88695     0.77238
 Zero-point vibrational energy     259886.3 (Joules/Mol)
                                   62.11432 (Kcal/Mol)
 Warning -- explicit consideration of  14 degrees of freedom as
           vibrations may cause significant error
 Vibrational temperatures:     35.04    58.80    81.16   216.42   224.82
          (Kelvin)            294.08   324.57   466.45   564.77   602.21
                              717.71   728.49   769.78   818.50   906.55
                             1042.60  1120.41  1190.62  1283.42  1435.43
                             1499.29  1541.37  1655.50  1698.42  1746.79
                             1789.03  1815.99  1926.96  1997.33  2102.21
                             2115.69  2119.95  2616.79  2661.66  4371.62
                             4417.88  4468.46  4540.37  4547.19

 Zero-point correction=                           0.098985 (Hartree/Particle)
 Thermal correction to Energy=                    0.109228
 Thermal correction to Enthalpy=                  0.110172
 Thermal correction to Gibbs Free Energy=         0.061067
 Sum of electronic and zero-point Energies=           -643.442712
 Sum of electronic and thermal Energies=              -643.432469
 Sum of electronic and thermal Enthalpies=            -643.431525
 Sum of electronic and thermal Free Energies=         -643.480630

                     E (Thermal)             CV                S
                      KCal/Mol        Cal/Mol-Kelvin    Cal/Mol-Kelvin
 Total                   68.542             34.748            103.351
 Electronic               0.000              0.000              0.000
 Translational            0.889              2.981             41.006
 Rotational               0.889              2.981             29.709
 Vibrational             66.764             28.786             32.637
 Vibration     1          0.593              1.985              6.243
 Vibration     2          0.594              1.981              5.217
 Vibration     3          0.596              1.975              4.579
 Vibration     4          0.618              1.902              2.667
 Vibration     5          0.620              1.896              2.595
 Vibration     6          0.640              1.834              2.093
 Vibration     7          0.650              1.802              1.914
 Vibration     8          0.709              1.627              1.289
 Vibration     9          0.760              1.486              0.990
 Vibration    10          0.781              1.430              0.897
 Vibration    11          0.854              1.253              0.661
 Vibration    12          0.862              1.236              0.643
 Vibration    13          0.890              1.173              0.576
 Vibration    14          0.925              1.099              0.506

                           ! Non-Optimized Parameters !
 Normal termination of Gaussian 16 at Fri Nov 12 18:40:16 2021.

 -----------------------------------------------------------------
 #N Geom=AllCheck Guess=TCheck SCRF=Check CCSD(T,E4T,FrzG4)/GTBas1
 -----------------------------------------------------------------

 Structure from the checkpoint file:  "/home/artemiy/opt/gaussian/scr/Gau-16398.chk"
 -------------------
 Title Card Required
 -------------------
 Charge =  0 Multiplicity = 1

 SCF Done:  E(RHF) =  -640.292407933     A.U. after   14 cycles
 E2 =    -0.1495417949D+01 EUMP2 =    -0.64178782588213D+03
 CCSD(T)= -0.64187332857D+03
 SDQ=-641.8328548\CCSD=-641.8261263\CCSD(T)=-641.8733286\RMSD=8.070e-09
 Normal termination of Gaussian 16 at Fri Nov 12 20:15:54 2021.

 ---------------------------------------------------------
 #N Geom=AllCheck Guess=TCheck SCRF=Check MP4=FrzG4/GTBas2
 ---------------------------------------------------------

 Structure from the checkpoint file:  "/home/artemiy/opt/gaussian/scr/Gau-16398.chk"
 -------------------
 Title Card Required
 -------------------
 Charge =  0 Multiplicity = 1

 SCF Done:  E(RHF) =  -640.311408613     A.U. after   14 cycles
 E2 =    -0.1521253707D+01 EUMP2 =    -0.64183266232011D+03
 Normal termination of Gaussian 16 at Fri Nov 12 20:52:09 2021.

 ---------------------------------------------------------
 #N Geom=AllCheck Guess=TCheck SCRF=Check MP4=FrzG4/GTBas3
 ---------------------------------------------------------

 Structure from the checkpoint file:  "/home/artemiy/opt/gaussian/scr/Gau-16398.chk"
 -------------------
 Title Card Required
 -------------------
 Charge =  0 Multiplicity = 1

 SCF Done:  E(RHF) =  -640.340237323     A.U. after   13 cycles
 E2 =    -0.1865411316D+01 EUMP2 =    -0.64220564863894D+03
 Normal termination of Gaussian 16 at Sat Nov 13 01:18:53 2021.

 -----------------------------------------------------------
 #N Geom=AllCheck Guess=TCheck SCRF=Check MP2=Full/GTLargeXP
 -----------------------------------------------------------

 Structure from the checkpoint file:  "/home/artemiy/opt/gaussian/scr/Gau-16398.chk"
 -------------------
 Title Card Required
 -------------------
 Charge =  0 Multiplicity = 1

 SCF Done:  E(RHF) =  -640.525272400     A.U. after   13 cycles
 E2 =    -0.2473748531D+01 EUMP2 =    -0.64299902093132D+03
 Normal termination of Gaussian 16 at Sat Nov 13 02:19:51 2021.
 SCF Done:  E(RHF) =  -640.580680750     A.U. after    9 cycles
 Normal termination of Gaussian 16 at Sat Nov 13 02:37:02 2021.

                         Standard orientation:
 ---------------------------------------------------------------------
 Center     Atomic      Atomic             Coordinates (Angstroms)
 Number     Number       Type             X           Y           Z
 ---------------------------------------------------------------------
      1          6           0       -2.888065    0.752502   -0.339751
      2          6           0       -1.987315   -0.389188    0.072204
      3          8           0       -2.134898   -1.526767   -0.289956
      4          6           0       -0.829350   -0.015259    1.033939
      5          6           0        0.259070    0.721011    0.277005
      6          8           0        0.195260    1.867968   -0.075690
      7          6           0        1.499525   -0.139207   -0.082924
      8          9           0        2.072738   -0.601573    1.038319
      9          9           0        1.109479   -1.192022   -0.812947
     10          9           0        2.394790    0.553866   -0.766060
     11          1           0       -1.206562    0.664990    1.803093
     12          1           0       -0.450480   -0.931938    1.484663
     13          1           0       -2.299293    1.632209   -0.615780
     14          1           0       -3.508445    1.042725    0.517153
     15          1           0       -3.534368    0.440802   -1.160613
 ---------------------------------------------------------------------

 SCF Done:  E(RHF) =  -640.592269115     A.U. after    7 cycles

 The electronic state is 1-A.
 Alpha  occ. eigenvalues --  -26.35995 -26.35713 -26.35579 -20.60944 -20.57177
 Alpha  occ. eigenvalues --  -11.53046 -11.39257 -11.36298 -11.28274 -11.25016
 Alpha  occ. eigenvalues --   -1.75328  -1.65881  -1.65705  -1.45333  -1.41848
 Alpha  occ. eigenvalues --   -1.10026  -1.03632  -0.99665  -0.89464  -0.84759
 Alpha  occ. eigenvalues --   -0.84650  -0.78930  -0.75535  -0.73387  -0.73190
 Alpha  occ. eigenvalues --   -0.69332  -0.68964  -0.68261  -0.67522  -0.67319
 Alpha  occ. eigenvalues --   -0.66980  -0.64513  -0.61007  -0.58978  -0.56720
 Alpha  occ. eigenvalues --   -0.56194  -0.52643  -0.47340  -0.43538
 Alpha virt. eigenvalues --    0.02544   0.03739   0.04389   0.04786   0.05903
 Alpha virt. eigenvalues --    0.06149   0.06617   0.06948   0.07140   0.07753
 Alpha virt. eigenvalues --    0.08768   0.09106   0.09280   0.10056   0.10726

 Mulliken charges:
               1
     1  C   -0.572412
     2  C    0.419495
     3  O   -0.491890
     4  C   -0.342360
     5  C    0.421266
     6  O   -0.454249
     7  C    0.726741
     8  F   -0.276271
     9  F   -0.262284
    10  F   -0.258282
    11  H    0.225808
    12  H    0.232505
    13  H    0.227577
    14  H    0.189126
    15  H    0.215229
 Sum of Mulliken charges =  -0.00000

 Dipole moment (field-independent basis, Debye):
    X=             -1.6260    Y=              1.4314    Z=              2.1234  Tot=              3.0334
 Quadrupole moment (field-independent basis, Debye-Ang):
   XX=            -55.4925   YY=            -65.3027   ZZ=            -53.2855
   XY=             -7.1634   XZ=             -1.6888   YZ=             -0.4093

 Normal termination of Gaussian 16 at Sat Nov 13 04:45:13 2021.
