 Gaussian 16, Revision A.03,
 Gaussian 16:  ES64L-G16RevA.03 25-Dec-2016

 -------------
 # g4 geom=gic
 -------------

 -------------------
 CAS 1522-22-1
 -------------------
 Symbolic Z-matrix:
 Charge =  0 Multiplicity = 1

 SCF Done:  E(RB3LYP) =  -941.272783358     A.U. after   14 cycles
 SCF Done:  E(RB3LYP) =  -941.273456564     A.U. after   12 cycles
 SCF Done:  E(RB3LYP) =  -941.273969732     A.U. after   12 cycles
 SCF Done:  E(RB3LYP) =  -941.274124816     A.U. after   11 cycles
 SCF Done:  E(RB3LYP) =  -941.274132806     A.U. after    8 cycles
 SCF Done:  E(RB3LYP) =  -941.274133802     A.U. after    8 cycles
 SCF Done:  E(RB3LYP) =  -941.274133174     A.U. after    8 cycles
 SCF Done:  E(RB3LYP) =  -941.274134130     A.U. after    8 cycles
 SCF Done:  E(RB3LYP) =  -941.274134445     A.U. after    7 cycles
 Optimization completed.
    -- Stationary point found.
 Normal termination of Gaussian 16 at Sun Nov 28 01:27:56 2021.

 ----------------------------------------------------------
 #N Geom=AllCheck Guess=TCheck SCRF=Check B3LYP/GTBas3 Freq
 ----------------------------------------------------------

 Structure from the checkpoint file:  "/home/artemiy/opt/gaussian/scr/Gau-21554.chk"
 -------------------
 Title Card Required
 -------------------
 Charge =  0 Multiplicity = 1

 SCF Done:  E(RB3LYP) =  -941.274134445     A.U. after    1 cycles

  Exact polarizability:  90.842  -1.322  63.674  -0.007  -0.002  43.839
 Approx polarizability: 128.821  -3.503 107.458  -0.008  -0.003  69.116

 ******    1 imaginary frequencies (negative Signs) ******

                      1                      2                      3
                      A                      A                      A
 Frequencies --    -16.2188                31.3947                89.7199
 Red. masses --     15.4898                16.3293                 7.5005
 Frc consts  --      0.0024                 0.0095                 0.0356
 IR Inten    --      0.2096                 0.0337                 1.7978

                      4                      5                      6
                      A                      A                      A
 Frequencies --    102.2965               120.6765               215.2157
 Red. masses --     14.5280                13.7194                13.5908
 Frc consts  --      0.0896                 0.1177                 0.3709
 IR Inten    --      0.9494                 1.5503                 2.8678

                      7                      8                      9
                      A                      A                      A
 Frequencies --    241.5305               254.3427               303.7711
 Red. masses --     11.9832                15.7952                10.7324
 Frc consts  --      0.4119                 0.6020                 0.5835
 IR Inten    --      1.8023                 0.6593                 0.0212

                     10                     11                     12
                      A                      A                      A
 Frequencies --    318.3389               360.1374               433.1956
 Red. masses --      8.8612                14.2978                11.6927
 Frc consts  --      0.5291                 1.0926                 1.2928
 IR Inten    --      4.3661                 1.1212                 0.2535

                     13                     14                     15
                      A                      A                      A
 Frequencies --    439.1950               512.3936               526.7599
 Red. masses --     12.7947                16.9626                15.1872
 Frc consts  --      1.4541                 2.6239                 2.4829
 IR Inten    --      0.4570                 0.0397                 3.4329

                     16                     17                     18
                      A                      A                      A
 Frequencies --    574.3629               587.8191               666.0409
 Red. masses --     15.4462                14.1588                11.1872
 Frc consts  --      3.0022                 2.8825                 2.9240
 IR Inten    --      8.6658                18.7790                62.7231

                     19                     20                     21
                      A                      A                      A
 Frequencies --    730.8799               746.6494               776.6187
 Red. masses --      8.5247                15.1760                 2.2413
 Frc consts  --      2.6830                 4.9847                 0.7965
 IR Inten    --      1.2186                 8.6342                 3.4445

                     22                     23                     24
                      A                      A                      A
 Frequencies --    826.4498               831.2136               909.7881
 Red. masses --     12.8180                 1.8472                 1.1520
 Frc consts  --      5.1582                 0.7519                 0.5618
 IR Inten    --      4.9983                34.5143                68.2038

                     25                     26                     27
                      A                      A                      A
 Frequencies --    936.6397              1114.3571              1133.7634
 Red. masses --      6.1521                 3.9856                 2.5034
 Frc consts  --      3.1799                 2.9160                 1.8959
 IR Inten    --     10.0370               168.2806                51.3945

                     28                     29                     30
                      A                      A                      A
 Frequencies --   1184.8930              1210.5697              1235.9005
 Red. masses --     12.9918                12.7793                12.1413
 Frc consts  --     10.7467                11.0341                10.9266
 IR Inten    --    234.2350               237.4805               337.3720

                     31                     32                     33
                      A                      A                      A
 Frequencies --   1241.3247              1282.0053              1344.3212
 Red. masses --      7.2333                 4.3269                 4.0389
 Frc consts  --      6.5669                 4.1899                 4.3005
 IR Inten    --    125.3513               564.2161                16.2957

                     34                     35                     36
                      A                      A                      A
 Frequencies --   1422.9653              1479.6992              1664.1789
 Red. masses --      2.2364                 4.4045                 3.3457
 Frc consts  --      2.6680                 5.6819                 5.4592
 IR Inten    --    102.5581                77.4467               252.2637

                     37                     38                     39
                      A                      A                      A
 Frequencies --   1731.3372              3171.4562              3261.4647
 Red. masses --     10.4498                 1.0698                 1.0919
 Frc consts  --     18.4553                 6.3400                 6.8431
 IR Inten    --    113.7722               225.1108                 3.3671

 - Thermochemistry -
 -------------------
 Temperature   298.150 Kelvin.  Pressure   1.00000 Atm.
 Atom     1 has atomic number  6 and mass  12.00000

 Molecular mass:   207.99590 amu.
 Principal axes and moments of inertia in atomic units:
                           1         2         3
     Eigenvalues --  1064.275264770.682915199.90059
           X            1.00000  -0.00079   0.00015
           Y            0.00079   1.00000   0.00008
           Z           -0.00015  -0.00008   1.00000
 This molecule is an asymmetric top.
 Rotational symmetry number  1.
 Warning -- assumption of classical behavior for rotation
           may cause significant error
 Rotational temperatures (Kelvin)      0.08138     0.01816     0.01666
 Rotational constants (GHZ):           1.69575     0.37830     0.34707
    1 imaginary frequencies ignored.
 Zero-point vibrational energy     203446.9 (Joules/Mol)
                                   48.62498 (Kcal/Mol)
 Warning -- explicit consideration of  16 degrees of freedom as
           vibrations may cause significant error
 Vibrational temperatures:     45.17   129.09   147.18   173.63   309.65
          (Kelvin)            347.51   365.94   437.06   458.02   518.16
                              623.27   631.90   737.22   757.89   826.38
                              845.74   958.28  1051.57  1074.26  1117.38
                             1189.08  1195.93  1308.98  1347.62  1603.31
                             1631.23  1704.80  1741.74  1778.19  1785.99
                             1844.52  1934.18  2047.33  2128.96  2394.38
                             2491.01  4563.02  4692.52

 Zero-point correction=                           0.077489 (Hartree/Particle)
 Thermal correction to Energy=                    0.088163
 Thermal correction to Enthalpy=                  0.089108
 Thermal correction to Gibbs Free Energy=         0.039346
 Sum of electronic and zero-point Energies=           -941.196646
 Sum of electronic and thermal Energies=              -941.185971
 Sum of electronic and thermal Enthalpies=            -941.185027
 Sum of electronic and thermal Free Energies=         -941.234789

                     E (Thermal)             CV                S
                      KCal/Mol        Cal/Mol-Kelvin    Cal/Mol-Kelvin
 Total                   55.323             38.411            104.733
 Electronic               0.000              0.000              0.000
 Translational            0.889              2.981             41.901
 Rotational               0.889              2.981             31.646
 Vibrational             53.546             32.449             31.186
 Vibration     1          0.594              1.983              5.739
 Vibration     2          0.602              1.956              3.666
 Vibration     3          0.604              1.947              3.410
 Vibration     4          0.609              1.932              3.090
 Vibration     5          0.645              1.818              1.999
 Vibration     6          0.658              1.777              1.792
 Vibration     7          0.665              1.755              1.700
 Vibration     8          0.695              1.667              1.396
 Vibration     9          0.705              1.639              1.319
 Vibration    10          0.735              1.554              1.122
 Vibration    11          0.794              1.398              0.848
 Vibration    12          0.799              1.385              0.829
 Vibration    13          0.867              1.223              0.628
 Vibration    14          0.882              1.191              0.594
 Vibration    15          0.931              1.087              0.496
 Vibration    16          0.945              1.058              0.471

 Optimization completed.
    -- Stationary point found.
 Normal termination of Gaussian 16 at Sun Nov 28 01:39:24 2021.

 -----------------------------------------------------------------
 #N Geom=AllCheck Guess=TCheck SCRF=Check CCSD(T,E4T,FrzG4)/GTBas1
 -----------------------------------------------------------------

 Structure from the checkpoint file:  "/home/artemiy/opt/gaussian/scr/Gau-21554.chk"
 -------------------
 Title Card Required
 -------------------
 Charge =  0 Multiplicity = 1

 SCF Done:  E(RHF) =  -936.855716845     A.U. after   14 cycles
 E2 =    -0.2004996425D+01 EUMP2 =    -0.93886071327043D+03
 CCSD(T)= -0.93894540941D+03
 8.8942953\CCSD=-938.8845424\CCSD(T)=-938.9454094\RMSD=3.069e-09\PG=C01
 Normal termination of Gaussian 16 at Sun Nov 28 02:50:00 2021.

 ---------------------------------------------------------
 #N Geom=AllCheck Guess=TCheck SCRF=Check MP4=FrzG4/GTBas2
 ---------------------------------------------------------

 Structure from the checkpoint file:  "/home/artemiy/opt/gaussian/scr/Gau-21554.chk"
 -------------------
 Title Card Required
 -------------------
 Charge =  0 Multiplicity = 1

 SCF Done:  E(RHF) =  -936.884921720     A.U. after   13 cycles
 E2 =    -0.2043024064D+01 EUMP2 =    -0.93892794578439D+03
 Normal termination of Gaussian 16 at Sun Nov 28 03:59:20 2021.

 ---------------------------------------------------------
 #N Geom=AllCheck Guess=TCheck SCRF=Check MP4=FrzG4/GTBas3
 ---------------------------------------------------------

 Structure from the checkpoint file:  "/home/artemiy/opt/gaussian/scr/Gau-21554.chk"
 -------------------
 Title Card Required
 -------------------
 Charge =  0 Multiplicity = 1

 SCF Done:  E(RHF) =  -936.918792679     A.U. after   12 cycles
 E2 =    -0.2522698596D+01 EUMP2 =    -0.93944149127562D+03
 Normal termination of Gaussian 16 at Sun Nov 28 09:37:43 2021.

 -----------------------------------------------------------
 #N Geom=AllCheck Guess=TCheck SCRF=Check MP2=Full/GTLargeXP
 -----------------------------------------------------------

 Structure from the checkpoint file:  "/home/artemiy/opt/gaussian/scr/Gau-21554.chk"
 -------------------
 Title Card Required
 -------------------
 Charge =  0 Multiplicity = 1

 SCF Done:  E(RHF) =  -937.202666607     A.U. after   13 cycles
 E2 =    -0.3356185841D+01 EUMP2 =    -0.94055885244784D+03
 Normal termination of Gaussian 16 at Sun Nov 28 10:04:54 2021.
 SCF Done:  E(RHF) =  -937.287497610     A.U. after    9 cycles
 Normal termination of Gaussian 16 at Sun Nov 28 10:23:30 2021.

                         Standard orientation:
 ---------------------------------------------------------------------
 Center     Atomic      Atomic             Coordinates (Angstroms)
 Number     Number       Type             X           Y           Z
 ---------------------------------------------------------------------
      1          6           0       -2.519143   -0.311503    0.000404
      2          9           0       -3.223260    0.028659   -1.080488
      3          9           0       -3.223029    0.028916    1.081364
      4          9           0       -2.358152   -1.635971    0.000544
      5          6           0       -1.175301    0.404731    0.000176
      6          6           0        0.010874   -0.261429    0.000128
      7          6           0        1.224387    0.512252   -0.000189
      8          8           0        1.264388    1.741569   -0.000289
      9          6           0        2.552123   -0.281313   -0.000360
     10          9           0        2.607668   -1.070484    1.081545
     11          9           0        2.608215   -1.068916   -1.083375
     12          9           0        3.600974    0.523576    0.000483
     13          1           0        0.036174   -1.339783    0.000299
     14          8           0       -1.305173    1.711865    0.000054
     15          1           0       -0.379270    2.083871   -0.000035
 ---------------------------------------------------------------------

 SCF Done:  E(RHF) =  -937.305256603     A.U. after    7 cycles

 The electronic state is 1-A.
 Alpha  occ. eigenvalues --  -26.36765 -26.36545 -26.36543 -26.36329 -26.36327
 Alpha  occ. eigenvalues --  -26.36207 -20.64201 -20.61054 -11.54560 -11.53947
 Alpha  occ. eigenvalues --  -11.40364 -11.39762 -11.27891  -1.76187  -1.76031
 Alpha  occ. eigenvalues --   -1.66724  -1.66515  -1.66393  -1.66336  -1.48588
 Alpha  occ. eigenvalues --   -1.44343  -1.13630  -1.06183  -1.01769  -0.93313
 Alpha  occ. eigenvalues --   -0.90430  -0.85854  -0.85467  -0.85354  -0.85337
 Alpha  occ. eigenvalues --   -0.81517  -0.79446  -0.74461  -0.74081  -0.73866
 Alpha  occ. eigenvalues --   -0.73862  -0.73547  -0.70723  -0.69564  -0.69432
 Alpha  occ. eigenvalues --   -0.69387  -0.68875  -0.67784  -0.67755  -0.64635
 Alpha  occ. eigenvalues --   -0.64461  -0.63005  -0.59876  -0.58783  -0.48930
 Alpha  occ. eigenvalues --   -0.41124
 Alpha virt. eigenvalues --    0.02807   0.03788   0.04155   0.04439   0.04855
 Alpha virt. eigenvalues --    0.05738   0.06282   0.06499   0.07346   0.07615
 Alpha virt. eigenvalues --    0.08181   0.08701   0.09595   0.10176   0.10623

 Mulliken charges:
               1
     1  C    0.730563
     2  F   -0.263858
     3  F   -0.263860
     4  F   -0.291036
     5  C    0.425110
     6  C   -0.345529
     7  C    0.535154
     8  O   -0.554949
     9  C    0.662369
    10  F   -0.257993
    11  F   -0.258012
    12  F   -0.256346
    13  H    0.243155
    14  O   -0.555378
    15  H    0.450610
 Sum of Mulliken charges =  -0.00000

 Dipole moment (field-independent basis, Debye):
    X=             -0.0970    Y=             -0.9362    Z=              0.0005  Tot=              0.9413
 Quadrupole moment (field-independent basis, Debye-Ang):
   XX=            -79.3980   YY=            -72.6265   ZZ=            -70.5058
   XY=             -0.6870   XZ=              0.0018   YZ=              0.0004

    1 imaginary frequencies ignored.
 Normal termination of Gaussian 16 at Sun Nov 28 12:51:30 2021.
