 Gaussian 16, Revision A.03,
 Gaussian 16:  ES64L-G16RevA.03 25-Dec-2016

 ----------------
 # g3mp2 geom=gic
 ----------------

 -------------------
 CAS 10359-20-3
 -------------------
 Symbolic Z-matrix:
 Charge =  0 Multiplicity = 1

 SCF Done:  E(RHF) =  -354.383997282     A.U. after   14 cycles
 SCF Done:  E(RHF) =  -354.386003991     A.U. after   12 cycles
 SCF Done:  E(RHF) =  -354.386043994     A.U. after   10 cycles
 SCF Done:  E(RHF) =  -354.386044264     A.U. after    9 cycles
 Optimization completed.
    -- Stationary point found.
 Normal termination of Gaussian 16 at Thu Jun 16 14:35:13 2022.

 -------------------------------------------------------
 #N Geom=AllCheck Guess=TCheck SCRF=Check HF/GTBas1 Freq
 -------------------------------------------------------

 Structure from the checkpoint file:  "/home/artemiy/opt/gaussian/scr/Gau-75132.chk"
 -------------------
 Title Card Required
 -------------------
 Charge =  0 Multiplicity = 1

 SCF Done:  E(RHF) =  -354.386044264     A.U. after    1 cycles

  Exact polarizability:  58.110  -0.000  58.107  -0.001  -0.000  43.847
 Approx polarizability:  54.555  -0.000  54.551  -0.001  -0.000  39.806

                      1                      2                      3
                      A                      A                      A
 Frequencies --    142.7163               142.7197               178.2741
 Red. masses --     10.6273                10.6274                 9.6840
 Frc consts  --      0.1275                 0.1275                 0.1813
 IR Inten    --      6.9055                 6.9060                25.1923
 Raman Activ --      5.7506                 5.7511                 3.1843

                      4                      5                      6
                      A                      A                      A
 Frequencies --    243.9884               243.9961               280.8895
 Red. masses --      4.1642                 4.1643                 1.0559
 Frc consts  --      0.1461                 0.1461                 0.0491
 IR Inten    --      1.4603                 1.4619                 0.0000
 Raman Activ --      1.9970                 1.9963                 0.0000

                      7                      8                      9
                      A                      A                      A
 Frequencies --    415.9844               539.2341               539.2430
 Red. masses --      8.5356                 6.7520                 6.7518
 Frc consts  --      0.8702                 1.1567                 1.1567
 IR Inten    --      0.0000                 1.7563                 1.7526
 Raman Activ --      0.0000                 1.2714                 1.2726

                     10                     11                     12
                      A                      A                      A
 Frequencies --    618.2069               646.1646               646.1787
 Red. masses --     12.6235                11.7707                11.7706
 Frc consts  --      2.8425                 2.8956                 2.8957
 IR Inten    --      1.7907                 0.5949                 0.5938
 Raman Activ --      3.8667                 4.2839                 4.2839

                     13                     14                     15
                      A                      A                      A
 Frequencies --    699.6859              1040.0734              1040.0751
 Red. masses --      5.8109                 2.0485                 2.0486
 Frc consts  --      1.6761                 1.3056                 1.3056
 IR Inten    --      4.6679                 8.8417                 8.8416
 Raman Activ --      6.3242                 3.4402                 3.4409

                     16                     17                     18
                      A                      A                      A
 Frequencies --   1161.6634              1318.2015              1318.2087
 Red. masses --      9.2479                 2.6828                 2.6828
 Frc consts  --      7.3528                 2.7467                 2.7466
 IR Inten    --      0.4745                41.2900                41.2845
 Raman Activ --     14.7326                 1.7211                 1.7207

                     19                     20                     21
                      A                      A                      A
 Frequencies --   1565.4865              1630.9251              1630.9267
 Red. masses --      1.1824                 1.0469                 1.0469
 Frc consts  --      1.7072                 1.6407                 1.6407
 IR Inten    --      0.2675                 4.3163                 4.3161
 Raman Activ --      0.9846                11.9841                11.9839

                     22                     23                     24
                      A                      A                      A
 Frequencies --   2636.5314              2636.5328              2640.0877
 Red. masses --     12.7103                12.7103                12.7028
 Frc consts  --     52.0561                52.0562                52.1658
 IR Inten    --      0.5771                 0.5774                 1.3467
 Raman Activ --     34.2328                34.2370                99.6100

                     25                     26                     27
                      A                      A                      A
 Frequencies --   3247.3625              3342.2119              3342.2140
 Red. masses --      1.0323                 1.1076                 1.1076
 Frc consts  --      6.4139                 7.2894                 7.2894
 IR Inten    --      4.7004                 4.2282                 4.2290
 Raman Activ --    105.3148                61.6102                61.6087

 - Thermochemistry -
 -------------------
 Temperature   298.150 Kelvin.  Pressure   1.00000 Atm.
 Atom     1 has atomic number  6 and mass  12.00000

 Molecular mass:   105.03270 amu.
 Principal axes and moments of inertia in atomic units:
                           1         2         3
     Eigenvalues --   842.79595 842.824861178.14791
           X            1.00000   0.00014  -0.00001
           Y           -0.00014   1.00000  -0.00000
           Z            0.00001   0.00000   1.00000
 This molecule is an asymmetric top.
 Rotational symmetry number  1.
 Warning -- assumption of classical behavior for rotation
           may cause significant error
 Rotational temperatures (Kelvin)      0.10277     0.10277     0.07352
 Rotational constants (GHZ):           2.14137     2.14130     1.53185
 Zero-point vibrational energy     202694.0 (Joules/Mol)
                                   48.44502 (Kcal/Mol)
 Warning -- explicit consideration of  10 degrees of freedom as
           vibrations may cause significant error
 Vibrational temperatures:    205.34   205.34   256.50   351.04   351.06
          (Kelvin)            404.14   598.51   775.84   775.85   889.46
                              929.69   929.71  1006.69  1496.43  1496.44
                             1671.37  1896.60  1896.61  2252.39  2346.54
                             2346.54  3793.38  3793.38  3798.50  4672.23
                             4808.70  4808.70

 Zero-point correction=                           0.077202 (Hartree/Particle)
 Thermal correction to Energy=                    0.084713
 Thermal correction to Enthalpy=                  0.085657
 Thermal correction to Gibbs Free Energy=         0.045348
 Sum of electronic and zero-point Energies=           -354.308842
 Sum of electronic and thermal Energies=              -354.301332
 Sum of electronic and thermal Enthalpies=            -354.300387
 Sum of electronic and thermal Free Energies=         -354.340696

                     E (Thermal)             CV                S
                      KCal/Mol        Cal/Mol-Kelvin    Cal/Mol-Kelvin
 Total                   53.158             25.700             84.837
 Electronic               0.000              0.000              0.000
 Translational            0.889              2.981             39.864
 Rotational               0.889              2.981             28.217
 Vibrational             51.381             19.738             16.756
 Vibration     1          0.616              1.910              2.767
 Vibration     2          0.616              1.910              2.767
 Vibration     3          0.629              1.869              2.346
 Vibration     4          0.659              1.773              1.774
 Vibration     5          0.659              1.773              1.774
 Vibration     6          0.681              1.709              1.528
 Vibration     7          0.779              1.436              0.906
 Vibration     8          0.894              1.163              0.567
 Vibration     9          0.894              1.163              0.567
 Vibration    10          0.978              0.993              0.419

 Optimization completed.
    -- Stationary point found.
 Normal termination of Gaussian 16 at Thu Jun 16 14:35:29 2022.

 ------------------------------------------------------------------
 #N Geom=AllCheck Guess=TCheck SCRF=Check MP2(Full)/GTBas1 Opt=RCFC
 ------------------------------------------------------------------

 Structure from the checkpoint file:  "/home/artemiy/opt/gaussian/scr/Gau-75132.chk"
 -------------------
 Title Card Required
 -------------------
 Charge =  0 Multiplicity = 1

 SCF Done:  E(RHF) =  -354.386044264     A.U. after    1 cycles
 E2 =    -0.1125694344D+01 EUMP2 =    -0.35551173860768D+03
 SCF Done:  E(RHF) =  -354.374493083     A.U. after   12 cycles
 E2 =    -0.1151826287D+01 EUMP2 =    -0.35552631937032D+03
 SCF Done:  E(RHF) =  -354.367752706     A.U. after   12 cycles
 E2 =    -0.1159197373D+01 EUMP2 =    -0.35552695007908D+03
 SCF Done:  E(RHF) =  -354.367750796     A.U. after    9 cycles
 E2 =    -0.1159204766D+01 EUMP2 =    -0.35552695556193D+03
 Optimization completed.
    -- Stationary point found.
 Normal termination of Gaussian 16 at Thu Jun 16 14:36:15 2022.

 --------------------------------------------------------------
 #N Geom=AllCheck Guess=TCheck SCRF=Check QCISD(T,FrzG3)/GTBas1
 --------------------------------------------------------------

 Structure from the checkpoint file:  "/home/artemiy/opt/gaussian/scr/Gau-75132.chk"
 -------------------
 Title Card Required
 -------------------
 Charge =  0 Multiplicity = 1

 SCF Done:  E(RHF) =  -354.367750796     A.U. after    1 cycles
 E2 =    -0.1123451245D+01 EUMP2 =    -0.35549120204111D+03
 Normal termination of Gaussian 16 at Thu Jun 16 14:39:53 2022.

 -------------------------------------------------------------
 #N Geom=AllCheck Guess=TCheck SCRF=Check MP2=FrzG3/GTMP2Large
 -------------------------------------------------------------

 Structure from the checkpoint file:  "/home/artemiy/opt/gaussian/scr/Gau-75132.chk"
 -------------------
 Title Card Required
 -------------------
 Charge =  0 Multiplicity = 1

                         Standard orientation:
 ---------------------------------------------------------------------
 Center     Atomic      Atomic             Coordinates (Angstroms)
 Number     Number       Type             X           Y           Z
 ---------------------------------------------------------------------
      1          6           0       -0.000000   -0.000001    0.222793
      2          6           0        0.000003   -0.000012    1.768961
      3          1           0        0.942284    0.417919    2.128005
      4          1           0       -0.833077    0.607058    2.128011
      5          1           0       -0.109195   -1.025019    2.127998
      6          6           0       -1.268266   -0.562404   -0.277480
      7          6           0        0.147073    1.379554   -0.277471
      8          6           0        1.121188   -0.817145   -0.277487
      9          7           0       -2.297004   -1.018571   -0.635236
     10          7           0        0.266388    2.498550   -0.635228
     11          7           0        2.030616   -1.479967   -0.635238
 ---------------------------------------------------------------------

 SCF Done:  E(RHF) =  -354.472400956     A.U. after   12 cycles
 E2 =    -0.1351933655D+01 EUMP2 =    -0.35582433461101D+03

 The electronic state is 1-A.
 Alpha  occ. eigenvalues --  -15.63870 -15.63870 -15.63870 -11.42493 -11.33933
 Alpha  occ. eigenvalues --  -11.33933 -11.33932 -11.30795  -1.29051  -1.25458
 Alpha  occ. eigenvalues --   -1.25458  -1.18122  -1.00032  -0.84527  -0.84527
 Alpha  occ. eigenvalues --   -0.68536  -0.63419  -0.63419  -0.61638  -0.60329
 Alpha  occ. eigenvalues --   -0.60329  -0.53113  -0.53113  -0.50516  -0.50516
 Alpha  occ. eigenvalues --   -0.50066  -0.49836
 Alpha virt. eigenvalues --    0.02580   0.05608   0.05608   0.06045   0.09116
 Alpha virt. eigenvalues --    0.09116   0.09182   0.09654   0.10098   0.10098
 Alpha virt. eigenvalues --    0.12189   0.12831   0.12831   0.14449   0.14449

 Mulliken charges:
               1
     1  C    1.435577
     2  C   -0.388543
     3  H    0.130477
     4  H    0.130477
     5  H    0.130477
     6  C   -0.191642
     7  C   -0.191644
     8  C   -0.191642
     9  N   -0.287846
    10  N   -0.287846
    11  N   -0.287846
 Sum of Mulliken charges =  -0.00000

 Dipole moment (field-independent basis, Debye):
    X=             -0.0000    Y=             -0.0000    Z=              4.0913  Tot=              4.0913
 Quadrupole moment (field-independent basis, Debye-Ang):
   XX=            -57.8450   YY=            -57.8450   ZZ=            -43.1871
   XY=             -0.0000   XZ=              0.0000   YZ=             -0.0000

 Normal termination of Gaussian 16 at Thu Jun 16 14:42:23 2022.
