 Gaussian 16, Revision A.03,
 Gaussian 16:  ES64L-G16RevA.03 25-Dec-2016

 ----------------
 # g3mp2 geom=gic
 ----------------

 -------------------
 CAS 10350-89-7
 -------------------
 Symbolic Z-matrix:
 Charge =  0 Multiplicity = 1

 SCF Done:  E(RHF) =  -783.267444633     A.U. after   14 cycles
 SCF Done:  E(RHF) =  -783.274405991     A.U. after   16 cycles
 SCF Done:  E(RHF) =  -783.273770983     A.U. after   14 cycles
 SCF Done:  E(RHF) =  -783.276404367     A.U. after   13 cycles
 SCF Done:  E(RHF) =  -783.276453795     A.U. after   13 cycles
 SCF Done:  E(RHF) =  -783.276545443     A.U. after   13 cycles
 SCF Done:  E(RHF) =  -783.276696076     A.U. after   13 cycles
 SCF Done:  E(RHF) =  -783.276767110     A.U. after   13 cycles
 SCF Done:  E(RHF) =  -783.276799874     A.U. after   12 cycles
 SCF Done:  E(RHF) =  -783.276820228     A.U. after   12 cycles
 SCF Done:  E(RHF) =  -783.277784826     A.U. after   11 cycles
 SCF Done:  E(RHF) =  -783.277784896     A.U. after    9 cycles
 Optimization completed.
    -- Stationary point found.
 Normal termination of Gaussian 16 at Fri Jun 17 22:18:33 2022.

 -------------------------------------------------------
 #N Geom=AllCheck Guess=TCheck SCRF=Check HF/GTBas1 Freq
 -------------------------------------------------------

 Structure from the checkpoint file:  "/home/artemiy/opt/gaussian/scr/Gau-109849.chk"
 -------------------
 Title Card Required
 -------------------
 Charge =  0 Multiplicity = 1

 SCF Done:  E(RHF) =  -783.277784896     A.U. after    1 cycles

  Exact polarizability: 145.599  -0.000 115.151 -22.834   0.000 108.731
 Approx polarizability: 115.380  -0.000 113.932 -23.137  -0.000 108.615

                      1                      2                      3
                      A                      A                      A
 Frequencies --      6.0708                27.0450                40.2007
 Red. masses --      9.1848                12.8368                10.2744
 Frc consts  --      0.0002                 0.0055                 0.0098
 IR Inten    --      3.3743                 0.3674                 3.5099
 Raman Activ --      0.0000                 0.0000                 0.0000

                      4                      5                      6
                      A                      A                      A
 Frequencies --     62.8283                75.9341               121.3492
 Red. masses --      7.2977                12.1014                13.7843
 Frc consts  --      0.0170                 0.0411                 0.1196
 IR Inten    --      0.0000                 0.0000                 0.0000
 Raman Activ --      2.3479                 1.0160                 8.3578

                      7                      8                      9
                      A                      A                      A
 Frequencies --    136.8353               139.5890               143.3178
 Red. masses --     12.0405                12.3922                10.3637
 Frc consts  --      0.1328                 0.1423                 0.1254
 IR Inten    --      8.4476                 8.7563                 0.0000
 Raman Activ --      0.0000                 0.0000                 8.3850

                     10                     11                     12
                      A                      A                      A
 Frequencies --    169.5983               170.0412               205.6523
 Red. masses --     11.1846                11.5373                10.0276
 Frc consts  --      0.1895                 0.1965                 0.2499
 IR Inten    --      0.0003                42.5740                12.4015
 Raman Activ --      5.5380                 0.0000                 0.0000

                     13                     14                     15
                      A                      A                      A
 Frequencies --    215.9448               224.9885               238.4652
 Red. masses --      9.0647                12.0172                 3.9320
 Frc consts  --      0.2491                 0.3584                 0.1317
 IR Inten    --     13.1513                 0.0000                 0.0000
 Raman Activ --      0.0000                 4.3978                 4.6650

                     16                     17                     18
                      A                      A                      A
 Frequencies --    282.0435               406.2352               410.2372
 Red. masses --      2.2847                11.0254                11.9340
 Frc consts  --      0.1071                 1.0720                 1.1833
 IR Inten    --      3.0030                 0.0000                 0.1030
 Raman Activ --      0.0000                 0.4912                 0.0000

                     19                     20                     21
                      A                      A                      A
 Frequencies --    443.7468               455.5437               495.1883
 Red. masses --     11.5699                 3.6889                10.2776
 Frc consts  --      1.3423                 0.4510                 1.4849
 IR Inten    --      9.8849                 0.0001                 0.0000
 Raman Activ --      0.0002                14.1480                 8.8212

                     22                     23                     24
                      A                      A                      A
 Frequencies --    529.6251               529.7511               531.3410
 Red. masses --      6.0845                 6.7260                 9.8043
 Frc consts  --      1.0056                 1.1121                 1.6308
 IR Inten    --      3.1256                 0.0002                 0.0000
 Raman Activ --      0.0004                 4.8958                12.2403

                     25                     26                     27
                      A                      A                      A
 Frequencies --    564.0101               618.0158               618.0708
 Red. masses --     10.3370                12.6981                12.7369
 Frc consts  --      1.9374                 2.8575                 2.8668
 IR Inten    --      2.6205                 0.0001                 3.3659
 Raman Activ --      0.0000                 9.7704                 0.0003

                     28                     29                     30
                      A                      A                      A
 Frequencies --    642.1864               643.6213               643.7041
 Red. masses --     12.1584                11.9149                11.8017
 Frc consts  --      2.9543                 2.9080                 2.8812
 IR Inten    --      0.0000                 1.5410                 1.6432
 Raman Activ --      6.7870                 0.0021                 0.0028

                     31                     32                     33
                      A                      A                      A
 Frequencies --    643.7570               755.7456               763.6210
 Red. masses --     11.8483                 5.9187                 5.1256
 Frc consts  --      2.8930                 1.9917                 1.7610
 IR Inten    --      0.0006                29.9394                 0.0000
 Raman Activ --     12.0739                 0.0000                13.1070

                     34                     35                     36
                      A                      A                      A
 Frequencies --    877.4141               991.7415               992.0574
 Red. masses --      4.8021                 2.0435                 2.0834
 Frc consts  --      2.1782                 1.1842                 1.2081
 IR Inten    --      0.0000                 9.3326                 0.0004
 Raman Activ --      4.1500                 0.0001                 2.9163

                     37                     38                     39
                      A                      A                      A
 Frequencies --   1130.8421              1145.6801              1206.9448
 Red. masses --     10.0644                 7.3765                 2.5894
 Frc consts  --      7.5830                 5.7046                 2.2224
 IR Inten    --     17.6998                 0.0000                49.7217
 Raman Activ --      0.0000                61.6287                 0.0000

                     40                     41                     42
                      A                      A                      A
 Frequencies --   1211.5874              1214.0718              1214.4171
 Red. masses --      2.7529                10.0481                 9.3156
 Frc consts  --      2.3809                 8.7262                 8.0946
 IR Inten    --      0.0000                74.8568                 0.0010
 Raman Activ --      4.5358                 0.0003                26.1257

                     43                     44                     45
                      A                      A                      A
 Frequencies --   1243.9403              1406.3001              1410.1963
 Red. masses --      3.2421                 1.3223                 1.3157
 Frc consts  --      2.9558                 1.5407                 1.5416
 IR Inten    --     11.5929                27.9013                 0.0000
 Raman Activ --      0.0000                 0.0000                10.1777

                     46                     47                     48
                      A                      A                      A
 Frequencies --   1499.1124              1499.1973              1617.2829
 Red. masses --      1.3822                 1.5552                 1.0894
 Frc consts  --      1.8301                 2.0595                 1.6788
 IR Inten    --      0.0596                43.0419                11.3056
 Raman Activ --     37.3572                 0.0515                 0.0000

                     49                     50                     51
                      A                      A                      A
 Frequencies --   1618.4996              2583.8240              2638.8370
 Red. masses --      1.0844                11.9177                12.7126
 Frc consts  --      1.6736                46.8781                52.1567
 IR Inten    --      0.0000                 0.0000                 0.2634
 Raman Activ --     21.1022               279.4819                 0.0001

                     52                     53                     54
                      A                      A                      A
 Frequencies --   2638.8597              2639.6146              2639.6294
 Red. masses --     12.7123                12.7103                12.7101
 Frc consts  --     52.1565                52.1780                52.1777
 IR Inten    --      0.0000                 0.0001                 0.0936
 Raman Activ --    101.8777                59.3671                 0.0584

                     55                     56                     57
                      A                      A                      A
 Frequencies --   2642.5880              2642.6256              3257.1027
 Red. masses --     12.7070                12.7076                 1.0598
 Frc consts  --     52.2820                52.2860                 6.6242
 IR Inten    --      2.1144                 0.0001                 0.0000
 Raman Activ --      0.0092               199.2568               206.0849

                     58                     59                     60
                      A                      A                      A
 Frequencies --   3257.6443              3311.0007              3311.4665
 Red. masses --      1.0600                 1.1076                 1.1079
 Frc consts  --      6.6279                 7.1542                 7.1581
 IR Inten    --      3.1190                 0.0000                 0.2335
 Raman Activ --      0.0004               114.0625                 0.0002

 - Thermochemistry -
 -------------------
 Temperature   298.150 Kelvin.  Pressure   1.00000 Atm.
 Atom     1 has atomic number  6 and mass  12.00000

 Molecular mass:   232.04974 amu.
 Principal axes and moments of inertia in atomic units:
                           1         2         3
     Eigenvalues --  2138.786379617.062309837.80993
           X            0.99998   0.00000  -0.00564
           Y           -0.00000   1.00000  -0.00000
           Z            0.00564   0.00000   0.99998
 This molecule is an asymmetric top.
 Rotational symmetry number  1.
 Warning -- assumption of classical behavior for rotation
           may cause significant error
 Rotational temperatures (Kelvin)      0.04050     0.00901     0.00880
 Rotational constants (GHZ):           0.84382     0.18766     0.18345
 Zero-point vibrational energy     381589.5 (Joules/Mol)
                                   91.20208 (Kcal/Mol)
 Warning -- explicit consideration of  27 degrees of freedom as
           vibrations may cause significant error
 Vibrational temperatures:      8.73    38.91    57.84    90.40   109.25
          (Kelvin)            174.59   196.88   200.84   206.20   244.01
                              244.65   295.89   310.70   323.71   343.10
                              405.80   584.48   590.24   638.45   655.43
                              712.47   762.01   762.19   764.48   811.48
                              889.19   889.27   923.96   926.03   926.15
                              926.22  1087.35  1098.68  1262.40  1426.89
                             1427.35  1627.03  1648.38  1736.52  1743.20
                             1746.78  1747.28  1789.75  2023.35  2028.96
                             2156.89  2157.01  2326.91  2328.66  3717.55
                             3796.70  3796.73  3797.82  3797.84  3802.09
                             3802.15  4686.24  4687.02  4763.79  4764.46

 Zero-point correction=                           0.145340 (Hartree/Particle)
 Thermal correction to Energy=                    0.162353
 Thermal correction to Enthalpy=                  0.163297
 Thermal correction to Gibbs Free Energy=         0.096676
 Sum of electronic and zero-point Energies=           -783.132445
 Sum of electronic and thermal Energies=              -783.115432
 Sum of electronic and thermal Enthalpies=            -783.114488
 Sum of electronic and thermal Free Energies=         -783.181109

                     E (Thermal)             CV                S
                      KCal/Mol        Cal/Mol-Kelvin    Cal/Mol-Kelvin
 Total                  101.878             58.192            140.215
 Electronic               0.000              0.000              0.000
 Translational            0.889              2.981             42.227
 Rotational               0.889              2.981             33.670
 Vibrational            100.100             52.231             64.318
 Vibration     1          0.593              1.987              9.003
 Vibration     2          0.593              1.984              6.035
 Vibration     3          0.594              1.981              5.249
 Vibration     4          0.597              1.972              4.366
 Vibration     5          0.599              1.965              3.993
 Vibration     6          0.609              1.931              3.079
 Vibration     7          0.614              1.917              2.848
 Vibration     8          0.615              1.914              2.809
 Vibration     9          0.616              1.910              2.759
 Vibration    10          0.625              1.880              2.440
 Vibration    11          0.625              1.879              2.435
 Vibration    12          0.640              1.832              2.082
 Vibration    13          0.645              1.817              1.993
 Vibration    14          0.650              1.803              1.919
 Vibration    15          0.656              1.782              1.814
 Vibration    16          0.681              1.707              1.521
 Vibration    17          0.771              1.457              0.940
 Vibration    18          0.774              1.448              0.926
 Vibration    19          0.803              1.375              0.815
 Vibration    20          0.814              1.349              0.779
 Vibration    21          0.851              1.261              0.670
 Vibration    22          0.885              1.184              0.588
 Vibration    23          0.885              1.184              0.588
 Vibration    24          0.886              1.181              0.584
 Vibration    25          0.920              1.109              0.516
 Vibration    26          0.978              0.994              0.420
 Vibration    27          0.978              0.994              0.420

 Optimization completed.
    -- Stationary point found.
 Normal termination of Gaussian 16 at Fri Jun 17 22:21:22 2022.

 ------------------------------------------------------------------
 #N Geom=AllCheck Guess=TCheck SCRF=Check MP2(Full)/GTBas1 Opt=RCFC
 ------------------------------------------------------------------

 Structure from the checkpoint file:  "/home/artemiy/opt/gaussian/scr/Gau-109849.chk"
 -------------------
 Title Card Required
 -------------------
 Charge =  0 Multiplicity = 1

 SCF Done:  E(RHF) =  -783.277784896     A.U. after    1 cycles
 E2 =    -0.2504051695D+01 EUMP2 =    -0.78578183659112D+03
 SCF Done:  E(RHF) =  -783.252787122     A.U. after   13 cycles
 E2 =    -0.2561790384D+01 EUMP2 =    -0.78581457750626D+03
 SCF Done:  E(RHF) =  -783.236079565     A.U. after   13 cycles
 E2 =    -0.2580216970D+01 EUMP2 =    -0.78581629653544D+03
 SCF Done:  E(RHF) =  -783.236330857     A.U. after   11 cycles
 E2 =    -0.2579992294D+01 EUMP2 =    -0.78581632315120D+03
 SCF Done:  E(RHF) =  -783.236244113     A.U. after    8 cycles
 E2 =    -0.2580080157D+01 EUMP2 =    -0.78581632426973D+03
 Optimization completed.
    -- Stationary point found.
 Normal termination of Gaussian 16 at Fri Jun 17 22:48:14 2022.

 --------------------------------------------------------------
 #N Geom=AllCheck Guess=TCheck SCRF=Check QCISD(T,FrzG3)/GTBas1
 --------------------------------------------------------------

 Structure from the checkpoint file:  "/home/artemiy/opt/gaussian/scr/Gau-109849.chk"
 -------------------
 Title Card Required
 -------------------
 Charge =  0 Multiplicity = 1

 SCF Done:  E(RHF) =  -783.236244113     A.U. after    1 cycles
 E2 =    -0.2497503491D+01 EUMP2 =    -0.78573374760334D+03
 Normal termination of Gaussian 16 at Sat Jun 18 20:55:39 2022.

 -------------------------------------------------------------
 #N Geom=AllCheck Guess=TCheck SCRF=Check MP2=FrzG3/GTMP2Large
 -------------------------------------------------------------

 Structure from the checkpoint file:  "/home/artemiy/opt/gaussian/scr/Gau-109849.chk"
 -------------------
 Title Card Required
 -------------------
 Charge =  0 Multiplicity = 1

                         Standard orientation:
 ---------------------------------------------------------------------
 Center     Atomic      Atomic             Coordinates (Angstroms)
 Number     Number       Type             X           Y           Z
 ---------------------------------------------------------------------
      1          6           0        2.982866   -0.000005   -0.006602
      2          6           0        1.794824   -0.000017   -1.021722
      3          1           0        1.899832    0.886987   -1.656599
      4          1           0        1.899788   -0.887066   -1.656542
      5          6           0        2.902709   -1.201598    0.842305
      6          6           0        4.253958   -0.000048   -0.751134
      7          6           0        2.902746    1.201645    0.842229
      8          7           0        2.813885    2.173607    1.507616
      9          7           0        2.813820   -2.173518    1.507749
     10          7           0        5.245470   -0.000085   -1.393306
     11          6           0        0.524174    0.000032   -0.313220
     12          6           0       -0.524175    0.000032    0.313223
     13          6           0       -1.794826   -0.000016    1.021723
     14          1           0       -1.899834    0.886987    1.656601
     15          1           0       -1.899790   -0.887066    1.656544
     16          6           0       -2.982867   -0.000005    0.006602
     17          6           0       -2.902708   -1.201598   -0.842305
     18          6           0       -4.253959   -0.000049    0.751132
     19          6           0       -2.902746    1.201645   -0.842229
     20          7           0       -5.245472   -0.000085    1.393303
     21          7           0       -2.813883    2.173607   -1.507616
     22          7           0       -2.813818   -2.173518   -1.507749
 ---------------------------------------------------------------------

 SCF Done:  E(RHF) =  -783.461655964     A.U. after   13 cycles
 E2 =    -0.2987172573D+01 EUMP2 =    -0.78644882853651D+03

 The electronic state is 1-A.
 Alpha  occ. eigenvalues --  -15.65175 -15.65175 -15.64855 -15.64855 -15.64855
 Alpha  occ. eigenvalues --  -15.64855 -11.44099 -11.44099 -11.35469 -11.35469
 Alpha  occ. eigenvalues --  -11.35093 -11.35093 -11.34862 -11.34862 -11.34861
 Alpha  occ. eigenvalues --  -11.34861 -11.30810 -11.30469  -1.30413  -1.30336
 Alpha  occ. eigenvalues --   -1.26528  -1.26523  -1.26329  -1.26328  -1.20809
 Alpha  occ. eigenvalues --   -1.20166  -1.11647  -1.05745  -0.98875  -0.86799
 Alpha  occ. eigenvalues --   -0.86079  -0.86011  -0.85980  -0.75055  -0.71490
 Alpha  occ. eigenvalues --   -0.70719  -0.68338  -0.67901  -0.66529  -0.62711
 Alpha  occ. eigenvalues --   -0.62668  -0.61931  -0.61864  -0.61726  -0.61605
 Alpha  occ. eigenvalues --   -0.54213  -0.54161  -0.54147  -0.54135  -0.52173
 Alpha  occ. eigenvalues --   -0.51653  -0.51485  -0.51483  -0.51301  -0.51249
 Alpha  occ. eigenvalues --   -0.50833  -0.50806  -0.44846  -0.44196
 Alpha virt. eigenvalues --    0.02481   0.03422   0.04789   0.05306   0.05727
 Alpha virt. eigenvalues --    0.05805   0.06920   0.07438   0.07539   0.07944
 Alpha virt. eigenvalues --    0.08618   0.08636   0.08778   0.08846   0.09127

 Mulliken charges:
               1
     1  C    1.800696
     2  C   -0.601134
     3  H    0.192741
     4  H    0.192743
     5  C   -0.343367
     6  C   -0.250395
     7  C   -0.343352
     8  N   -0.251670
     9  N   -0.251671
    10  N   -0.246445
    11  C    0.101855
    12  C    0.101855
    13  C   -0.601136
    14  H    0.192741
    15  H    0.192743
    16  C    1.800696
    17  C   -0.343367
    18  C   -0.250395
    19  C   -0.343352
    20  N   -0.246445
    21  N   -0.251670
    22  N   -0.251672
 Sum of Mulliken charges =  -0.00000

 Dipole moment (field-independent basis, Debye):
    X=             -0.0000    Y=             -0.0001    Z=              0.0000  Tot=              0.0001
 Quadrupole moment (field-independent basis, Debye-Ang):
   XX=           -138.4394   YY=           -123.8483   ZZ=           -111.5628
   XY=             -0.0000   XZ=             -6.0049   YZ=              0.0000

 Normal termination of Gaussian 16 at Sat Jun 18 22:34:31 2022.
