 Gaussian 16, Revision A.03,
 Gaussian 16:  ES64L-G16RevA.03 25-Dec-2016

 ----------------
 # g3mp2 geom=gic
 ----------------

 -------------------
 CAS 1522-22-1
 -------------------
 Symbolic Z-matrix:
 Charge =  0 Multiplicity = 1

 SCF Done:  E(RHF) =  -936.856508718     A.U. after   14 cycles
 SCF Done:  E(RHF) =  -936.862206010     A.U. after   12 cycles
 SCF Done:  E(RHF) =  -936.862623676     A.U. after   12 cycles
 SCF Done:  E(RHF) =  -936.862939224     A.U. after   11 cycles
 SCF Done:  E(RHF) =  -936.862957818     A.U. after   10 cycles
 SCF Done:  E(RHF) =  -936.862961420     A.U. after   10 cycles
 SCF Done:  E(RHF) =  -936.862961527     A.U. after    9 cycles
 SCF Done:  E(RHF) =  -936.862961627     A.U. after    8 cycles
 Optimization completed.
    -- Stationary point found.
 Normal termination of Gaussian 16 at Fri Nov 26 11:17:46 2021.

 -------------------------------------------------------
 #N Geom=AllCheck Guess=TCheck SCRF=Check HF/GTBas1 Freq
 -------------------------------------------------------

 Structure from the checkpoint file:  "/home/artemiy/opt/gaussian/scr/Gau-4301.chk"
 -------------------
 Title Card Required
 -------------------
 Charge =  0 Multiplicity = 1

 SCF Done:  E(RHF) =  -936.862961627     A.U. after    1 cycles

  Exact polarizability:  73.038  -2.135  54.186  -0.006   0.004  35.106
 Approx polarizability:  56.223  -2.156  54.096  -0.004   0.004  37.159

                      1                      2                      3
                      A                      A                      A
 Frequencies --     23.9927                39.0575                92.0821
 Red. masses --     16.6132                16.1681                 9.1283
 Frc consts  --      0.0056                 0.0145                 0.0456
 IR Inten    --      0.1794                 0.0658                 0.4568
 Raman Activ --      0.1506                 0.0919                 2.1529

                      4                      5                      6
                      A                      A                      A
 Frequencies --    110.5114               130.5407               235.7618
 Red. masses --     14.5801                 9.4105                13.1852
 Frc consts  --      0.1049                 0.0945                 0.4318
 IR Inten    --      1.3534                 5.2930                 3.5340
 Raman Activ --      0.0359                 1.3405                 0.5739

                      7                      8                      9
                      A                      A                      A
 Frequencies --    258.8976               268.8721               340.1887
 Red. masses --     12.8615                15.5256                 9.5457
 Frc consts  --      0.5079                 0.6613                 0.6509
 IR Inten    --      1.2149                 1.1574                 0.0346
 Raman Activ --      2.2502                 0.2064                 0.6392

                     10                     11                     12
                      A                      A                      A
 Frequencies --    345.2300               382.2830               471.7698
 Red. masses --      9.0103                14.3041                12.2035
 Frc consts  --      0.6327                 1.2316                 1.6003
 IR Inten    --      3.3915                 2.2562                 0.6915
 Raman Activ --      0.5749                 1.4036                 0.2988

                     13                     14                     15
                      A                      A                      A
 Frequencies --    480.5914               558.0109               572.4542
 Red. masses --     13.3984                16.6407                11.6898
 Frc consts  --      1.8233                 3.0529                 2.2570
 IR Inten    --      0.9868                 0.4576                 4.5154
 Raman Activ --      1.3956                 1.1335                 1.2334

                     16                     17                     18
                      A                      A                      A
 Frequencies --    624.8956               636.2828               714.3409
 Red. masses --     15.3379                14.1391                 9.9265
 Frc consts  --      3.5288                 3.3727                 2.9844
 IR Inten    --     15.9813                36.7347                69.3674
 Raman Activ --      0.0874                 0.8344                 0.3992

                     19                     20                     21
                      A                      A                      A
 Frequencies --    727.0666               809.0351               814.7364
 Red. masses --      1.1579                 8.8298                14.9814
 Frc consts  --      0.3606                 3.4051                 5.8592
 IR Inten    --    133.3327                 6.2680                18.2160
 Raman Activ --      0.3380                 1.3882                 4.1000

                     22                     23                     24
                      A                      A                      A
 Frequencies --    863.2335               897.4467               945.2586
 Red. masses --      2.1701                12.1359                 2.0148
 Frc consts  --      0.9528                 5.7589                 1.0607
 IR Inten    --     12.3492                 3.6444                76.2845
 Raman Activ --      0.4098                 0.8357                 4.5203

                     25                     26                     27
                      A                      A                      A
 Frequencies --   1006.9117              1180.9969              1240.0602
 Red. masses --      5.8584                 7.1639                 2.2590
 Frc consts  --      3.4996                 5.8871                 2.0467
 IR Inten    --      7.9172               333.2141               124.0242
 Raman Activ --      8.5243                 4.3546                 7.2834

                     28                     29                     30
                      A                      A                      A
 Frequencies --   1364.0710              1391.3539              1405.7018
 Red. masses --     13.1150                12.9898                 7.0491
 Frc consts  --     14.3778                14.8159                 8.2067
 IR Inten    --    298.6529               314.5671               528.6544
 Raman Activ --      1.5913                 3.2376                 2.5287

                     31                     32                     33
                      A                      A                      A
 Frequencies --   1415.8223              1435.8965              1476.3695
 Red. masses --      5.5698                 3.6350                 1.9380
 Frc consts  --      6.5782                 4.4157                 2.4888
 IR Inten    --    132.6664               454.9911               184.7224
 Raman Activ --      2.2739                 4.1678                 9.1410

                     34                     35                     36
                      A                      A                      A
 Frequencies --   1543.0265              1612.4562              1843.9085
 Red. masses --      4.7738                 4.3757                 5.4568
 Frc consts  --      6.6967                 6.7031                10.9312
 IR Inten    --     98.9526               186.6256               280.5979
 Raman Activ --     11.3079                 3.2683                91.1876

                     37                     38                     39
                      A                      A                      A
 Frequencies --   1994.8287              3450.2280              3914.7745
 Red. masses --     11.4550                 1.0934                 1.0660
 Frc consts  --     26.8568                 7.6686                 9.6255
 IR Inten    --    173.2350                 5.0364               164.7220
 Raman Activ --     17.2769                39.2769                19.2744

 - Thermochemistry -
 -------------------
 Temperature   298.150 Kelvin.  Pressure   1.00000 Atm.
 Atom     1 has atomic number  6 and mass  12.00000

 Molecular mass:   207.99590 amu.
 Principal axes and moments of inertia in atomic units:
                           1         2         3
     Eigenvalues --  1049.198894710.098335141.58352
           X            1.00000  -0.00120   0.00011
           Y            0.00120   1.00000  -0.00014
           Z           -0.00011   0.00014   1.00000
 This molecule is an asymmetric top.
 Rotational symmetry number  1.
 Warning -- assumption of classical behavior for rotation
           may cause significant error
 Rotational temperatures (Kelvin)      0.08255     0.01839     0.01685
 Rotational constants (GHZ):           1.72011     0.38316     0.35101
 Zero-point vibrational energy     225011.3 (Joules/Mol)
                                   53.77898 (Kcal/Mol)
 Warning -- explicit consideration of  15 degrees of freedom as
           vibrations may cause significant error
 Vibrational temperatures:     34.52    56.20   132.49   159.00   187.82
          (Kelvin)            339.21   372.50   386.85   489.46   496.71
                              550.02   678.77   691.46   802.85   823.63
                              899.09   915.47  1027.78  1046.09  1164.02
                             1172.22  1242.00  1291.23  1360.02  1448.72
                             1699.19  1784.17  1962.59  2001.85  2022.49
                             2037.05  2065.93  2124.17  2220.07  2319.96
                             2652.97  2870.11  4964.11  5632.49

 Zero-point correction=                           0.085702 (Hartree/Particle)
 Thermal correction to Energy=                    0.096707
 Thermal correction to Enthalpy=                  0.097651
 Thermal correction to Gibbs Free Energy=         0.046156
 Sum of electronic and zero-point Energies=           -936.777259
 Sum of electronic and thermal Energies=              -936.766255
 Sum of electronic and thermal Enthalpies=            -936.765311
 Sum of electronic and thermal Free Energies=         -936.816806

                     E (Thermal)             CV                S
                      KCal/Mol        Cal/Mol-Kelvin    Cal/Mol-Kelvin
 Total                   60.684             38.316            108.381
 Electronic               0.000              0.000              0.000
 Translational            0.889              2.981             41.901
 Rotational               0.889              2.981             31.608
 Vibrational             58.907             32.354             34.872
 Vibration     1          0.593              1.985              6.273
 Vibration     2          0.594              1.981              5.306
 Vibration     3          0.602              1.955              3.615
 Vibration     4          0.606              1.941              3.260
 Vibration     5          0.612              1.923              2.938
 Vibration     6          0.655              1.786              1.835
 Vibration     7          0.668              1.748              1.669
 Vibration     8          0.673              1.730              1.603
 Vibration     9          0.720              1.595              1.211
 Vibration    10          0.724              1.585              1.188
 Vibration    11          0.752              1.508              1.030
 Vibration    12          0.829              1.313              0.733
 Vibration    13          0.837              1.293              0.708
 Vibration    14          0.914              1.122              0.528
 Vibration    15          0.929              1.091              0.500

 Optimization completed.
    -- Stationary point found.
 Normal termination of Gaussian 16 at Fri Nov 26 11:18:48 2021.

 ------------------------------------------------------------------
 #N Geom=AllCheck Guess=TCheck SCRF=Check MP2(Full)/GTBas1 Opt=RCFC
 ------------------------------------------------------------------

 Structure from the checkpoint file:  "/home/artemiy/opt/gaussian/scr/Gau-4301.chk"
 -------------------
 Title Card Required
 -------------------
 Charge =  0 Multiplicity = 1

 SCF Done:  E(RHF) =  -936.862961627     A.U. after    1 cycles
 E2 =    -0.2035202725D+01 EUMP2 =    -0.93889816435186D+03
 SCF Done:  E(RHF) =  -936.854949521     A.U. after   12 cycles
 E2 =    -0.2052929375D+01 EUMP2 =    -0.93890787889604D+03
 SCF Done:  E(RHF) =  -936.852014197     A.U. after   11 cycles
 E2 =    -0.2056092308D+01 EUMP2 =    -0.93890810650546D+03
 SCF Done:  E(RHF) =  -936.851972331     A.U. after    9 cycles
 E2 =    -0.2056137871D+01 EUMP2 =    -0.93890811020232D+03
 Optimization completed.
    -- Stationary point found.
 Normal termination of Gaussian 16 at Fri Nov 26 11:24:54 2021.

 --------------------------------------------------------------
 #N Geom=AllCheck Guess=TCheck SCRF=Check QCISD(T,FrzG3)/GTBas1
 --------------------------------------------------------------

 Structure from the checkpoint file:  "/home/artemiy/opt/gaussian/scr/Gau-4301.chk"
 -------------------
 Title Card Required
 -------------------
 Charge =  0 Multiplicity = 1

 SCF Done:  E(RHF) =  -936.851972331     A.U. after    1 cycles
 E2 =    -0.2010395082D+01 EUMP2 =    -0.93886236741265D+03
 Normal termination of Gaussian 16 at Fri Nov 26 12:33:34 2021.

 -------------------------------------------------------------
 #N Geom=AllCheck Guess=TCheck SCRF=Check MP2=FrzG3/GTMP2Large
 -------------------------------------------------------------

 Structure from the checkpoint file:  "/home/artemiy/opt/gaussian/scr/Gau-4301.chk"
 -------------------
 Title Card Required
 -------------------
 Charge =  0 Multiplicity = 1

                         Standard orientation:
 ---------------------------------------------------------------------
 Center     Atomic      Atomic             Coordinates (Angstroms)
 Number     Number       Type             X           Y           Z
 ---------------------------------------------------------------------
      1          6           0       -2.500140   -0.312474    0.000229
      2          9           0       -3.213383    0.021565   -1.088418
      3          9           0       -3.213069    0.021164    1.089203
      4          9           0       -2.329674   -1.647800   -0.000042
      5          6           0       -1.175197    0.408708    0.000170
      6          6           0        0.015201   -0.248445   -0.000148
      7          6           0        1.234200    0.519680   -0.000147
      8          8           0        1.292319    1.759903    0.000069
      9          6           0        2.537956   -0.281031   -0.000322
     10          9           0        2.580820   -1.074793    1.090645
     11          9           0        2.580170   -1.075476   -1.090820
     12          9           0        3.609663    0.510934   -0.000892
     13          1           0        0.040812   -1.329179   -0.000376
     14          8           0       -1.343728    1.725155    0.000458
     15          1           0       -0.432405    2.129744    0.000388
 ---------------------------------------------------------------------

 SCF Done:  E(RHF) =  -937.179180355     A.U. after   12 cycles
 E2 =    -0.2719972833D+01 EUMP2 =    -0.93989915318870D+03

 The electronic state is 1-A.
 Alpha  occ. eigenvalues --  -26.37374 -26.37312 -26.37310 -26.36982 -26.36980
 Alpha  occ. eigenvalues --  -26.36862 -20.65023 -20.61657 -11.55002 -11.54462
 Alpha  occ. eigenvalues --  -11.40859 -11.40227 -11.28633  -1.75886  -1.75830
 Alpha  occ. eigenvalues --   -1.66632  -1.66508  -1.66507  -1.66316  -1.48277
 Alpha  occ. eigenvalues --   -1.44007  -1.14393  -1.07089  -1.02177  -0.93424
 Alpha  occ. eigenvalues --   -0.90404  -0.85766  -0.85317  -0.85263  -0.85221
 Alpha  occ. eigenvalues --   -0.81350  -0.79496  -0.74454  -0.74165  -0.74020
 Alpha  occ. eigenvalues --   -0.74011  -0.73583  -0.70675  -0.69637  -0.69520
 Alpha  occ. eigenvalues --   -0.69505  -0.68993  -0.68011  -0.67952  -0.64978
 Alpha  occ. eigenvalues --   -0.64379  -0.63358  -0.60389  -0.58601  -0.49571
 Alpha  occ. eigenvalues --   -0.41652
 Alpha virt. eigenvalues --    0.02105   0.04453   0.06377   0.08640   0.09489
 Alpha virt. eigenvalues --    0.09985   0.10862   0.11813   0.11825   0.12798
 Alpha virt. eigenvalues --    0.13389   0.13969   0.14874   0.16721   0.17271

 Mulliken charges:
               1
     1  C    0.730036
     2  F   -0.243521
     3  F   -0.243523
     4  F   -0.300588
     5  C    0.055510
     6  C    0.225748
     7  C    0.090686
     8  O   -0.472213
     9  C    0.768899
    10  F   -0.244292
    11  F   -0.244316
    12  F   -0.281008
    13  H    0.204536
    14  O   -0.434491
    15  H    0.388537
 Sum of Mulliken charges =  -0.00000

 Dipole moment (field-independent basis, Debye):
    X=             -0.0931    Y=             -0.8793    Z=             -0.0004  Tot=              0.8842
 Quadrupole moment (field-independent basis, Debye-Ang):
   XX=            -80.7210   YY=            -72.9618   ZZ=            -71.0075
   XY=             -0.9329   XZ=              0.0007   YZ=             -0.0001

 Normal termination of Gaussian 16 at Fri Nov 26 12:46:32 2021.
