 Gaussian 16, Revision A.03,
 Gaussian 16:  ES64L-G16RevA.03 25-Dec-2016

 -------------
 # g4 geom=gic
 -------------

 -------------------
 CAS 10350-89-7
 -------------------
 Symbolic Z-matrix:
 Charge =  0 Multiplicity = 1

 SCF Done:  E(RB3LYP) =  -787.979715507     A.U. after   13 cycles
 SCF Done:  E(RB3LYP) =  -787.991081872     A.U. after   12 cycles
 SCF Done:  E(RB3LYP) =  -787.991111334     A.U. after   11 cycles
 SCF Done:  E(RB3LYP) =  -787.991072014     A.U. after   12 cycles
 SCF Done:  E(RB3LYP) =  -787.991134218     A.U. after   11 cycles
 SCF Done:  E(RB3LYP) =  -787.991134890     A.U. after    8 cycles
 SCF Done:  E(RB3LYP) =  -787.991135485     A.U. after    8 cycles
 Optimization completed.
    -- Stationary point found.
 Normal termination of Gaussian 16 at Wed Jun 22 11:36:15 2022.

 ----------------------------------------------------------
 #N Geom=AllCheck Guess=TCheck SCRF=Check B3LYP/GTBas3 Freq
 ----------------------------------------------------------

 Structure from the checkpoint file:  "/home/artemiy/opt/gaussian/scr/Gau-12103.chk"
 -------------------
 Title Card Required
 -------------------
 Charge =  0 Multiplicity = 1

 SCF Done:  E(RB3LYP) =  -787.991135485     A.U. after    1 cycles

  Exact polarizability: 173.399   0.001 127.478 -23.604  -0.000 121.408
 Approx polarizability: 236.876   0.005 222.416 -54.427  -0.003 211.762

                      1                      2                      3
                      A                      A                      A
 Frequencies --      5.2563                23.0862                35.9309
 Red. masses --      9.1498                12.9477                10.2725
 Frc consts  --      0.0001                 0.0041                 0.0078
 IR Inten    --      2.8335                 0.2564                 2.8613

                      4                      5                      6
                      A                      A                      A
 Frequencies --     52.5885                67.4195               109.6843
 Red. masses --      7.2270                12.0742                13.7946
 Frc consts  --      0.0118                 0.0323                 0.0978
 IR Inten    --      0.0000                 0.0000                 0.0000

                      7                      8                      9
                      A                      A                      A
 Frequencies --    123.6245               125.7725               129.4116
 Red. masses --     12.0225                12.4062                10.3240
 Frc consts  --      0.1083                 0.1156                 0.1019
 IR Inten    --      6.9274                 7.0713                 0.0000

                     10                     11                     12
                      A                      A                      A
 Frequencies --    154.4089               154.5938               185.7942
 Red. masses --     11.5654                11.1474                 9.9386
 Frc consts  --      0.1625                 0.1570                 0.2021
 IR Inten    --     33.1916                 0.0000                10.0354

                     13                     14                     15
                      A                      A                      A
 Frequencies --    195.8382               201.8148               216.6556
 Red. masses --      9.0279                12.0893                 4.0518
 Frc consts  --      0.2040                 0.2901                 0.1121
 IR Inten    --     10.2799                 0.0000                 0.0000

                     16                     17                     18
                      A                      A                      A
 Frequencies --    255.1044               363.1157               367.6949
 Red. masses --      2.2775                 9.2080                12.0532
 Frc consts  --      0.0873                 0.7153                 0.9601
 IR Inten    --      2.3403                 0.0000                 0.1018

                     19                     20                     21
                      A                      A                      A
 Frequencies --    387.4008               398.5252               453.8761
 Red. masses --      4.1685                11.5373                10.6690
 Frc consts  --      0.3686                 1.0796                 1.2949
 IR Inten    --      0.0000                 8.9008                 0.0000

                     22                     23                     24
                      A                      A                      A
 Frequencies --    464.5841               479.0076               479.0744
 Red. masses --     10.1727                 6.2513                 5.8844
 Frc consts  --      1.2936                 0.8451                 0.7957
 IR Inten    --      0.0000                 0.0002                 1.3132

                     25                     26                     27
                      A                      A                      A
 Frequencies --    516.3288               572.5940               572.6907
 Red. masses --     10.1767                12.6668                12.6703
 Frc consts  --      1.5985                 2.4469                 2.4484
 IR Inten    --      1.4231                 0.3941                 0.0009

                     28                     29                     30
                      A                      A                      A
 Frequencies --    577.9259               577.9478               579.7437
 Red. masses --     12.0429                12.0504                12.2514
 Frc consts  --      2.3699                 2.3715                 2.4261
 IR Inten    --      0.4073                 0.0002                 0.0000

                     31                     32                     33
                      A                      A                      A
 Frequencies --    580.5008               694.5557               696.5175
 Red. masses --     12.1570                 5.9320                 5.4669
 Frc consts  --      2.4137                 1.6860                 1.5626
 IR Inten    --      0.2948                18.9316                 0.0001

                     34                     35                     36
                      A                      A                      A
 Frequencies --    816.8012               899.3753               903.0152
 Red. masses --      4.4326                 2.0335                 2.0335
 Frc consts  --      1.7424                 0.9691                 0.9770
 IR Inten    --      0.0000                 0.0000                 1.9639

                     37                     38                     39
                      A                      A                      A
 Frequencies --    989.4279               994.5670              1091.1177
 Red. masses --     10.8128                 9.4978                 2.6825
 Frc consts  --      6.2367                 5.5353                 1.8816
 IR Inten    --      0.6982                 0.0000                31.0818

                     40                     41                     42
                      A                      A                      A
 Frequencies --   1092.0934              1097.0592              1097.7255
 Red. masses --      2.7926                 9.2350                 7.9947
 Frc consts  --      1.9624                 6.5486                 5.6759
 IR Inten    --      0.0004                48.4276                 0.0005

                     43                     44                     45
                      A                      A                      A
 Frequencies --   1180.9747              1270.5601              1272.2510
 Red. masses --      2.9608                 1.3155                 1.3152
 Frc consts  --      2.4330                 1.2512                 1.2542
 IR Inten    --      3.1389                17.1639                 0.0003

                     46                     47                     48
                      A                      A                      A
 Frequencies --   1343.5584              1345.0422              1464.4575
 Red. masses --      1.3534                 1.6267                 1.0955
 Frc consts  --      1.4394                 1.7340                 1.3843
 IR Inten    --      0.0007                46.0006                13.8827

                     49                     50                     51
                      A                      A                      A
 Frequencies --   1465.2460              2374.6238              2374.7959
 Red. masses --      1.0870                12.6858                12.7031
 Frc consts  --      1.3750                42.1460                42.2096
 IR Inten    --      0.0000                 0.0000                 2.3688

                     52                     53                     54
                      A                      A                      A
 Frequencies --   2375.1615              2375.1639              2381.2020
 Red. masses --     12.7028                12.7026                12.4612
 Frc consts  --     42.2216                42.2210                41.6295
 IR Inten    --      0.0097                 2.9495                 0.0000

                     55                     56                     57
                      A                      A                      A
 Frequencies --   2382.3272              2385.6155              3057.2813
 Red. masses --     12.6866                12.1018                 1.0581
 Frc consts  --     42.4227                40.5791                 5.8271
 IR Inten    --      0.2923                 0.0000                 0.0001

                     58                     59                     60
                      A                      A                      A
 Frequencies --   3058.2104              3104.5636              3105.0221
 Red. masses --      1.0585                 1.1051                 1.1053
 Frc consts  --      5.8328                 6.2755                 6.2788
 IR Inten    --      5.3313                 0.0000                 0.0686

 - Thermochemistry -
 -------------------
 Temperature   298.150 Kelvin.  Pressure   1.00000 Atm.
 Atom     1 has atomic number  6 and mass  12.00000

 Molecular mass:   232.04974 amu.
 Principal axes and moments of inertia in atomic units:
                           1         2         3
     Eigenvalues --  2160.981079592.100379820.01139
           X            0.99998   0.00000  -0.00575
           Y           -0.00000   1.00000  -0.00000
           Z            0.00575   0.00000   0.99998
 This molecule is an asymmetric top.
 Rotational symmetry number  1.
 Warning -- assumption of classical behavior for rotation
           may cause significant error
 Rotational temperatures (Kelvin)      0.04008     0.00903     0.00882
 Rotational constants (GHZ):           0.83515     0.18815     0.18378
 Zero-point vibrational energy     347493.1 (Joules/Mol)
                                   83.05284 (Kcal/Mol)
 Warning -- explicit consideration of  31 degrees of freedom as
           vibrations may cause significant error
 Vibrational temperatures:      7.56    33.22    51.70    75.66    97.00
          (Kelvin)            157.81   177.87   180.96   186.19   222.16
                              222.43   267.32   281.77   290.37   311.72
                              367.04   522.44   529.03   557.38   573.39
                              653.03   668.43   689.19   689.28   742.88
                              823.84   823.97   831.51   831.54   834.12
                              835.21   999.31  1002.13  1175.19  1294.00
                             1299.24  1423.57  1430.96  1569.87  1571.28
                             1578.42  1579.38  1699.16  1828.05  1830.49
                             1933.08  1935.22  2107.03  2108.16  3416.55
                             3416.80  3417.33  3417.33  3426.02  3427.64
                             3432.37  4398.75  4400.08  4466.77  4467.43

 Zero-point correction=                           0.132353 (Hartree/Particle)
 Thermal correction to Energy=                    0.150498
 Thermal correction to Enthalpy=                  0.151442
 Thermal correction to Gibbs Free Energy=         0.082007
 Sum of electronic and zero-point Energies=           -787.858782
 Sum of electronic and thermal Energies=              -787.840638
 Sum of electronic and thermal Enthalpies=            -787.839693
 Sum of electronic and thermal Free Energies=         -787.909129

                     E (Thermal)             CV                S
                      KCal/Mol        Cal/Mol-Kelvin    Cal/Mol-Kelvin
 Total                   94.439             61.719            146.139
 Electronic               0.000              0.000              0.000
 Translational            0.889              2.981             42.227
 Rotational               0.889              2.981             33.675
 Vibrational             92.661             55.757             70.237
 Vibration     1          0.593              1.987              9.289
 Vibration     2          0.593              1.985              6.349
 Vibration     3          0.594              1.982              5.472
 Vibration     4          0.596              1.977              4.718
 Vibration     5          0.598              1.970              4.227
 Vibration     6          0.606              1.941              3.274
 Vibration     7          0.610              1.929              3.043
 Vibration     8          0.611              1.927              3.010
 Vibration     9          0.612              1.924              2.955
 Vibration    10          0.620              1.898              2.617
 Vibration    11          0.620              1.898              2.615
 Vibration    12          0.632              1.859              2.269
 Vibration    13          0.636              1.846              2.172
 Vibration    14          0.639              1.837              2.116
 Vibration    15          0.645              1.816              1.987
 Vibration    16          0.665              1.754              1.695
 Vibration    17          0.737              1.548              1.109
 Vibration    18          0.740              1.539              1.089
 Vibration    19          0.756              1.497              1.010
 Vibration    20          0.765              1.473              0.968
 Vibration    21          0.812              1.352              0.784
 Vibration    22          0.822              1.329              0.753
 Vibration    23          0.835              1.297              0.713
 Vibration    24          0.836              1.296              0.713
 Vibration    25          0.871              1.214              0.619
 Vibration    26          0.929              1.091              0.499
 Vibration    27          0.929              1.090              0.499
 Vibration    28          0.934              1.079              0.489
 Vibration    29          0.934              1.079              0.489
 Vibration    30          0.936              1.075              0.486
 Vibration    31          0.937              1.073              0.484

 Optimization completed.
    -- Stationary point found.
 Normal termination of Gaussian 16 at Wed Jun 22 12:01:25 2022.

 -----------------------------------------------------------------
 #N Geom=AllCheck Guess=TCheck SCRF=Check CCSD(T,E4T,FrzG4)/GTBas1
 -----------------------------------------------------------------

 Structure from the checkpoint file:  "/home/artemiy/opt/gaussian/scr/Gau-12103.chk"
 -------------------
 Title Card Required
 -------------------
 Charge =  0 Multiplicity = 1

 SCF Done:  E(RHF) =  -783.268729948     A.U. after   13 cycles
 E2 =    -0.2453470002D+01 EUMP2 =    -0.78572219994932D+03
 CCSD(T)= -0.78587326253D+03
 Normal termination of Gaussian 16 at Wed Jun 22 17:30:54 2022.

 ---------------------------------------------------------
 #N Geom=AllCheck Guess=TCheck SCRF=Check MP4=FrzG4/GTBas2
 ---------------------------------------------------------

 Structure from the checkpoint file:  "/home/artemiy/opt/gaussian/scr/Gau-12103.chk"
 -------------------
 Title Card Required
 -------------------
 Charge =  0 Multiplicity = 1

 SCF Done:  E(RHF) =  -783.285874754     A.U. after   12 cycles
 E2 =    -0.2480477676D+01 EUMP2 =    -0.78576635242985D+03
 Normal termination of Gaussian 16 at Wed Jun 22 21:21:33 2022.

 ---------------------------------------------------------
 #N Geom=AllCheck Guess=TCheck SCRF=Check MP4=FrzG4/GTBas3
 ---------------------------------------------------------

 Structure from the checkpoint file:  "/home/artemiy/opt/gaussian/scr/Gau-12103.chk"
 -------------------
 Title Card Required
 -------------------
 Charge =  0 Multiplicity = 1

 SCF Done:  E(RHF) =  -783.334532834     A.U. after   12 cycles
 E2 =    -0.2842827519D+01 EUMP2 =    -0.78617736035209D+03
 Normal termination of Gaussian 16 at Thu Jun 23 18:24:35 2022.

 -----------------------------------------------------------
 #N Geom=AllCheck Guess=TCheck SCRF=Check MP2=Full/GTLargeXP
 -----------------------------------------------------------

 Structure from the checkpoint file:  "/home/artemiy/opt/gaussian/scr/Gau-12103.chk"
 -------------------
 Title Card Required
 -------------------
 Charge =  0 Multiplicity = 1

 SCF Done:  E(RHF) =  -783.509978106     A.U. after   13 cycles
 E2 =    -0.3769937144D+01 EUMP2 =    -0.78727991524994D+03
 Normal termination of Gaussian 16 at Thu Jun 23 20:24:39 2022.
 SCF Done:  E(RHF) =  -783.565785764     A.U. after    9 cycles
 Normal termination of Gaussian 16 at Thu Jun 23 20:57:11 2022.

                         Standard orientation:
 ---------------------------------------------------------------------
 Center     Atomic      Atomic             Coordinates (Angstroms)
 Number     Number       Type             X           Y           Z
 ---------------------------------------------------------------------
      1          6           0       -3.017796   -0.000001    0.003354
      2          6           0       -1.791018    0.000055    1.002227
      3          1           0       -1.893812    0.884284    1.638861
      4          1           0       -1.893559   -0.884348    1.638663
      5          6           0       -2.972930   -1.206708   -0.847503
      6          6           0       -4.265335   -0.000181    0.793916
      7          6           0       -2.973206    1.206849   -0.847307
      8          7           0       -2.917604    2.160509   -1.493865
      9          7           0       -2.917167   -2.160280   -1.494177
     10          7           0       -5.213481   -0.000543    1.451038
     11          6           0       -0.519013    0.000340    0.302853
     12          6           0        0.519029    0.000461   -0.302826
     13          6           0        1.791013    0.000087   -1.002237
     14          1           0        1.893848    0.884281   -1.638913
     15          1           0        1.893503   -0.884349   -1.638633
     16          6           0        3.017799   -0.000006   -0.003361
     17          6           0        2.972898   -1.206690    0.847530
     18          6           0        4.265345   -0.000261   -0.793913
     19          6           0        2.973283    1.206864    0.847279
     20          7           0        5.213443   -0.000659   -1.451106
     21          7           0        2.917685    2.160520    1.493842
     22          7           0        2.917067   -2.160220    1.494260
 ---------------------------------------------------------------------

 SCF Done:  E(RHF) =  -783.575586685     A.U. after    7 cycles

 The electronic state is 1-A.
 Alpha  occ. eigenvalues --  -15.63944 -15.63944 -15.63688 -15.63688 -15.63688
 Alpha  occ. eigenvalues --  -15.63688 -11.44015 -11.44015 -11.35407 -11.35407
 Alpha  occ. eigenvalues --  -11.33994 -11.33993 -11.33803 -11.33803 -11.33803
 Alpha  occ. eigenvalues --  -11.33803 -11.30165 -11.29781  -1.30804  -1.30755
 Alpha  occ. eigenvalues --   -1.27694  -1.27691  -1.27543  -1.27542  -1.20732
 Alpha  occ. eigenvalues --   -1.20003  -1.11921  -1.05583  -0.98978  -0.86008
 Alpha  occ. eigenvalues --   -0.85399  -0.85333  -0.85240  -0.74833  -0.71260
 Alpha  occ. eigenvalues --   -0.70299  -0.68118  -0.67839  -0.66363  -0.62449
 Alpha  occ. eigenvalues --   -0.62416  -0.61780  -0.61727  -0.61613  -0.61505
 Alpha  occ. eigenvalues --   -0.54905  -0.54879  -0.54873  -0.54848  -0.52839
 Alpha  occ. eigenvalues --   -0.52388  -0.52287  -0.52284  -0.52026  -0.51816
 Alpha  occ. eigenvalues --   -0.51684  -0.51668  -0.45196  -0.44614
 Alpha virt. eigenvalues --    0.01669   0.02364   0.03219   0.03226   0.04087
 Alpha virt. eigenvalues --    0.04405   0.04488   0.05249   0.05611   0.05980
 Alpha virt. eigenvalues --    0.06033   0.06723   0.06974   0.07053   0.07062

 Mulliken charges:
               1
     1  C    0.617962
     2  C   -0.435503
     3  H    0.259203
     4  H    0.259216
     5  C    0.152656
     6  C    0.096580
     7  C    0.152656
     8  N   -0.361283
     9  N   -0.361289
    10  N   -0.364216
    11  C   -0.015983
    12  C   -0.015984
    13  C   -0.435492
    14  H    0.259199
    15  H    0.259221
    16  C    0.617944
    17  C    0.152668
    18  C    0.096590
    19  C    0.152651
    20  N   -0.364220
    21  N   -0.361283
    22  N   -0.361292
 Sum of Mulliken charges =  -0.00000

 Dipole moment (field-independent basis, Debye):
    X=              0.0001    Y=              0.0003    Z=             -0.0000  Tot=              0.0003
 Quadrupole moment (field-independent basis, Debye-Ang):
   XX=           -138.3867   YY=           -123.1764   ZZ=           -111.5476
   XY=              0.0000   XZ=             -5.4792   YZ=             -0.0001

 Normal termination of Gaussian 16 at Fri Jun 24 01:46:50 2022.
