 Gaussian 16, Revision A.03,
 Gaussian 16:  ES64L-G16RevA.03 25-Dec-2016

 -------------
 # g4 geom=gic
 -------------

 -------------------
 CAS 1522-22-1
 -------------------
 Symbolic Z-matrix:
 Charge =  0 Multiplicity = 1

 SCF Done:  E(RB3LYP) =  -941.273926211     A.U. after   14 cycles
 SCF Done:  E(RB3LYP) =  -941.274099654     A.U. after   10 cycles
 SCF Done:  E(RB3LYP) =  -941.274125841     A.U. after    9 cycles
 SCF Done:  E(RB3LYP) =  -941.274131190     A.U. after    9 cycles
 SCF Done:  E(RB3LYP) =  -941.274134114     A.U. after    8 cycles
 Optimization completed.
    -- Stationary point found.
 Normal termination of Gaussian 16 at Fri Nov 26 23:06:38 2021.

 ----------------------------------------------------------
 #N Geom=AllCheck Guess=TCheck SCRF=Check B3LYP/GTBas3 Freq
 ----------------------------------------------------------

 Structure from the checkpoint file:  "/home/artemiy/opt/gaussian/scr/Gau-11321.chk"
 -------------------
 Title Card Required
 -------------------
 Charge =  0 Multiplicity = 1

 SCF Done:  E(RB3LYP) =  -941.274134114     A.U. after    1 cycles

  Exact polarizability:  90.843   1.324  63.671  -0.006  -0.002  43.838
 Approx polarizability: 128.808   3.509 107.444  -0.008  -0.004  69.113

 ******    1 imaginary frequencies (negative Signs) ******

                      1                      2                      3
                      A                      A                      A
 Frequencies --    -17.3449                31.0632                89.6852
 Red. masses --     15.5184                16.3141                 7.5013
 Frc consts  --      0.0028                 0.0093                 0.0355
 IR Inten    --      0.2082                 0.0327                 1.7959

                      4                      5                      6
                      A                      A                      A
 Frequencies --    102.1494               120.6117               215.0434
 Red. masses --     14.5323                13.7017                13.5932
 Frc consts  --      0.0893                 0.1174                 0.3704
 IR Inten    --      0.9481                 1.5552                 2.8569

                      7                      8                      9
                      A                      A                      A
 Frequencies --    241.4587               254.2768               303.7602
 Red. masses --     11.9946                15.7864                10.7236
 Frc consts  --      0.4120                 0.6014                 0.5830
 IR Inten    --      1.8053                 0.6552                 0.0204

                     10                     11                     12
                      A                      A                      A
 Frequencies --    318.3267               359.9371               433.1530
 Red. masses --      8.8682                14.2862                11.6969
 Frc consts  --      0.5295                 1.0905                 1.2930
 IR Inten    --      4.3758                 1.1236                 0.2544

                     13                     14                     15
                      A                      A                      A
 Frequencies --    439.1569               512.4986               526.8515
 Red. masses --     12.7928                16.9552                15.1679
 Frc consts  --      1.4536                 2.6239                 2.4806
 IR Inten    --      0.4571                 0.0392                 3.4231

                     16                     17                     18
                      A                      A                      A
 Frequencies --    574.3832               587.8081               666.0251
 Red. masses --     15.4469                14.1610                11.1779
 Frc consts  --      3.0026                 2.8828                 2.9214
 IR Inten    --      8.6702                18.8080                62.7105

                     19                     20                     21
                      A                      A                      A
 Frequencies --    730.8005               746.7565               776.3924
 Red. masses --      8.4598                15.1733                 2.2387
 Frc consts  --      2.6620                 4.9853                 0.7951
 IR Inten    --      1.2615                 8.6739                 3.5724

                     22                     23                     24
                      A                      A                      A
 Frequencies --    826.4834               831.1919               907.7541
 Red. masses --     12.8166                 1.8452                 1.1550
 Frc consts  --      5.1581                 0.7511                 0.5607
 IR Inten    --      4.9119                34.3101                68.3500

                     25                     26                     27
                      A                      A                      A
 Frequencies --    936.5256              1113.9850              1133.5988
 Red. masses --      6.1533                 4.0070                 2.4965
 Frc consts  --      3.1798                 2.9298                 1.8902
 IR Inten    --      9.9598               168.8584                51.5389

                     28                     29                     30
                      A                      A                      A
 Frequencies --   1185.0531              1210.7484              1236.1175
 Red. masses --     12.9935                12.7830                12.1195
 Frc consts  --     10.7511                11.0405                10.9107
 IR Inten    --    234.2218               237.4215               340.6853

                     31                     32                     33
                      A                      A                      A
 Frequencies --   1241.4655              1282.1278              1344.2490
 Red. masses --      7.2084                 4.3381                 4.0583
 Frc consts  --      6.5457                 4.2015                 4.3207
 IR Inten    --    122.1818               564.4001                16.1798

                     34                     35                     36
                      A                      A                      A
 Frequencies --   1423.1070              1478.9903              1664.2652
 Red. masses --      2.2229                 4.4105                 3.3555
 Frc consts  --      2.6525                 5.6842                 5.4759
 IR Inten    --    102.3743                77.3666               251.5502

                     37                     38                     39
                      A                      A                      A
 Frequencies --   1731.7667              3176.7345              3261.6392
 Red. masses --     10.4565                 1.0698                 1.0919
 Frc consts  --     18.4763                 6.3608                 6.8438
 IR Inten    --    113.7684               224.3465                 3.3549

 - Thermochemistry -
 -------------------
 Temperature   298.150 Kelvin.  Pressure   1.00000 Atm.
 Atom     1 has atomic number  6 and mass  12.00000

 Molecular mass:   207.99590 amu.
 Principal axes and moments of inertia in atomic units:
                           1         2         3
     Eigenvalues --  1064.315494771.231955200.49218
           X            1.00000   0.00079   0.00013
           Y           -0.00079   1.00000   0.00008
           Z           -0.00013  -0.00008   1.00000
 This molecule is an asymmetric top.
 Rotational symmetry number  1.
 Warning -- assumption of classical behavior for rotation
           may cause significant error
 Rotational temperatures (Kelvin)      0.08138     0.01815     0.01665
 Rotational constants (GHZ):           1.69568     0.37825     0.34703
    1 imaginary frequencies ignored.
 Zero-point vibrational energy     203460.5 (Joules/Mol)
                                   48.62823 (Kcal/Mol)
 Warning -- explicit consideration of  16 degrees of freedom as
           vibrations may cause significant error
 Vibrational temperatures:     44.69   129.04   146.97   173.53   309.40
          (Kelvin)            347.41   365.85   437.04   458.00   517.87
                              623.21   631.85   737.37   758.02   826.41
                              845.72   958.26  1051.46  1074.42  1117.06
                             1189.13  1195.90  1306.06  1347.45  1602.78
                             1631.00  1705.03  1742.00  1778.50  1786.19
                             1844.70  1934.07  2047.53  2127.94  2394.51
                             2491.63  4570.61  4692.77

 Zero-point correction=                           0.077494 (Hartree/Particle)
 Thermal correction to Energy=                    0.088171
 Thermal correction to Enthalpy=                  0.089115
 Thermal correction to Gibbs Free Energy=         0.039339
 Sum of electronic and zero-point Energies=           -941.196640
 Sum of electronic and thermal Energies=              -941.185963
 Sum of electronic and thermal Enthalpies=            -941.185019
 Sum of electronic and thermal Free Energies=         -941.234795

                     E (Thermal)             CV                S
                      KCal/Mol        Cal/Mol-Kelvin    Cal/Mol-Kelvin
 Total                   55.328             38.415            104.763
 Electronic               0.000              0.000              0.000
 Translational            0.889              2.981             41.901
 Rotational               0.889              2.981             31.646
 Vibrational             53.551             32.453             31.216
 Vibration     1          0.594              1.983              5.760
 Vibration     2          0.602              1.956              3.667
 Vibration     3          0.604              1.947              3.413
 Vibration     4          0.609              1.932              3.091
 Vibration     5          0.645              1.818              2.000
 Vibration     6          0.658              1.777              1.792
 Vibration     7          0.665              1.756              1.701
 Vibration     8          0.695              1.667              1.396
 Vibration     9          0.705              1.639              1.319
 Vibration    10          0.734              1.555              1.122
 Vibration    11          0.794              1.398              0.848
 Vibration    12          0.799              1.385              0.829
 Vibration    13          0.868              1.222              0.628
 Vibration    14          0.882              1.191              0.594
 Vibration    15          0.931              1.087              0.496
 Vibration    16          0.945              1.058              0.471

 Optimization completed.
    -- Stationary point found.
 Normal termination of Gaussian 16 at Fri Nov 26 23:18:06 2021.

 -----------------------------------------------------------------
 #N Geom=AllCheck Guess=TCheck SCRF=Check CCSD(T,E4T,FrzG4)/GTBas1
 -----------------------------------------------------------------

 Structure from the checkpoint file:  "/home/artemiy/opt/gaussian/scr/Gau-11321.chk"
 -------------------
 Title Card Required
 -------------------
 Charge =  0 Multiplicity = 1

 SCF Done:  E(RHF) =  -936.855763818     A.U. after   14 cycles
 E2 =    -0.2004941477D+01 EUMP2 =    -0.93886070529481D+03
 CCSD(T)= -0.93894541058D+03
 SDQ=-938.8943028\CCSD=-938.8845516\CCSD(T)=-938.9454106\RMSD=3.064e-09
 Normal termination of Gaussian 16 at Sat Nov 27 00:27:58 2021.

 ---------------------------------------------------------
 #N Geom=AllCheck Guess=TCheck SCRF=Check MP4=FrzG4/GTBas2
 ---------------------------------------------------------

 Structure from the checkpoint file:  "/home/artemiy/opt/gaussian/scr/Gau-11321.chk"
 -------------------
 Title Card Required
 -------------------
 Charge =  0 Multiplicity = 1

 SCF Done:  E(RHF) =  -936.884968059     A.U. after   13 cycles
 E2 =    -0.2042967538D+01 EUMP2 =    -0.93892793559734D+03
 Normal termination of Gaussian 16 at Sat Nov 27 01:36:35 2021.

 ---------------------------------------------------------
 #N Geom=AllCheck Guess=TCheck SCRF=Check MP4=FrzG4/GTBas3
 ---------------------------------------------------------

 Structure from the checkpoint file:  "/home/artemiy/opt/gaussian/scr/Gau-11321.chk"
 -------------------
 Title Card Required
 -------------------
 Charge =  0 Multiplicity = 1

 SCF Done:  E(RHF) =  -936.918849099     A.U. after   12 cycles
 E2 =    -0.2522646785D+01 EUMP2 =    -0.93944149588389D+03
 Normal termination of Gaussian 16 at Sat Nov 27 07:14:29 2021.

 -----------------------------------------------------------
 #N Geom=AllCheck Guess=TCheck SCRF=Check MP2=Full/GTLargeXP
 -----------------------------------------------------------

 Structure from the checkpoint file:  "/home/artemiy/opt/gaussian/scr/Gau-11321.chk"
 -------------------
 Title Card Required
 -------------------
 Charge =  0 Multiplicity = 1

 SCF Done:  E(RHF) =  -937.202723621     A.U. after   13 cycles
 E2 =    -0.3356133805D+01 EUMP2 =    -0.94055885742672D+03
 Normal termination of Gaussian 16 at Sat Nov 27 07:42:17 2021.
 SCF Done:  E(RHF) =  -937.287552794     A.U. after    9 cycles
 Normal termination of Gaussian 16 at Sat Nov 27 08:01:12 2021.

                         Standard orientation:
 ---------------------------------------------------------------------
 Center     Atomic      Atomic             Coordinates (Angstroms)
 Number     Number       Type             X           Y           Z
 ---------------------------------------------------------------------
      1          6           0        2.519290   -0.311529   -0.000300
      2          9           0        3.223410    0.028719    1.080510
      3          9           0        3.223123    0.028568   -1.081344
      4          9           0        2.358448   -1.635924   -0.000186
      5          6           0        1.175324    0.404624   -0.000172
      6          6           0       -0.010941   -0.261047    0.000036
      7          6           0       -1.224778    0.512748    0.000136
      8          8           0       -1.264766    1.741943    0.000005
      9          6           0       -2.552251   -0.281357    0.000348
     10          9           0       -2.607913   -1.069796   -1.082023
     11          9           0       -2.607695   -1.069579    1.082887
     12          9           0       -3.601473    0.522819    0.000373
     13          1           0       -0.036388   -1.339377    0.000121
     14          8           0        1.305461    1.712017   -0.000280
     15          1           0        0.379871    2.083809   -0.000171
 ---------------------------------------------------------------------

 SCF Done:  E(RHF) =  -937.305312036     A.U. after    7 cycles

 The electronic state is 1-A.
 Alpha  occ. eigenvalues --  -26.36762 -26.36547 -26.36545 -26.36327 -26.36325
 Alpha  occ. eigenvalues --  -26.36210 -20.64196 -20.61061 -11.54558 -11.53948
 Alpha  occ. eigenvalues --  -11.40369 -11.39756 -11.27895  -1.76190  -1.76039
 Alpha  occ. eigenvalues --   -1.66723  -1.66520  -1.66397  -1.66336  -1.48580
 Alpha  occ. eigenvalues --   -1.44351  -1.13628  -1.06182  -1.01769  -0.93315
 Alpha  occ. eigenvalues --   -0.90432  -0.85855  -0.85468  -0.85360  -0.85340
 Alpha  occ. eigenvalues --   -0.81511  -0.79449  -0.74460  -0.74081  -0.73869
 Alpha  occ. eigenvalues --   -0.73865  -0.73548  -0.70725  -0.69563  -0.69430
 Alpha  occ. eigenvalues --   -0.69389  -0.68876  -0.67781  -0.67757  -0.64640
 Alpha  occ. eigenvalues --   -0.64456  -0.63000  -0.59879  -0.58786  -0.48933
 Alpha  occ. eigenvalues --   -0.41128
 Alpha virt. eigenvalues --    0.02808   0.03788   0.04155   0.04439   0.04855
 Alpha virt. eigenvalues --    0.05738   0.06282   0.06499   0.07346   0.07614
 Alpha virt. eigenvalues --    0.08181   0.08701   0.09596   0.10176   0.10622

 Mulliken charges:
               1
     1  C    0.730605
     2  F   -0.263869
     3  F   -0.263869
     4  F   -0.291035
     5  C    0.424828
     6  C   -0.345396
     7  C    0.535178
     8  O   -0.554775
     9  C    0.662492
    10  F   -0.258014
    11  F   -0.258018
    12  F   -0.256337
    13  H    0.243103
    14  O   -0.555436
    15  H    0.450544
 Sum of Mulliken charges =  -0.00000

 Dipole moment (field-independent basis, Debye):
    X=              0.0938    Y=             -0.9365    Z=              0.0002  Tot=              0.9412
 Quadrupole moment (field-independent basis, Debye-Ang):
   XX=            -79.3970   YY=            -72.6302   ZZ=            -70.5053
   XY=              0.6847   XZ=              0.0010   YZ=              0.0003

    1 imaginary frequencies ignored.
 Normal termination of Gaussian 16 at Sat Nov 27 10:30:55 2021.
