 Gaussian 16, Revision A.03,
 Gaussian 16:  ES64L-G16RevA.03 25-Dec-2016

 ----------------------------------------------------------------------
 # opt=(tight) freq M06/6-311++G(3df,3pd) nosymm int=ultrafinegrid scf=
 (tight,ssd,noincfock,xqc,fdiag,novaracc)
 ----------------------------------------------------------------------

 -------------------
 CAS 1522-22-1
 -------------------
 Symbolic Z-matrix:
 Charge =  0 Multiplicity = 1

 SCF Done:  E(RM06) =  -941.193828295     A.U. after   14 cycles
 SCF Done:  E(RM06) =  -941.195570824     A.U. after   11 cycles
 SCF Done:  E(RM06) =  -941.195823664     A.U. after   11 cycles
 SCF Done:  E(RM06) =  -941.195834906     A.U. after   10 cycles
 SCF Done:  E(RM06) =  -941.195841487     A.U. after   10 cycles
 SCF Done:  E(RM06) =  -941.195842256     A.U. after    8 cycles
 SCF Done:  E(RM06) =  -941.195842279     A.U. after    7 cycles
 SCF Done:  E(RM06) =  -941.195842295     A.U. after    7 cycles
 SCF Done:  E(RM06) =  -941.195842300     A.U. after    5 cycles
 SCF Done:  E(RM06) =  -941.195842300     A.U. after    5 cycles
 SCF Done:  E(RM06) =  -941.195842300     A.U. after    5 cycles
 SCF Done:  E(RM06) =  -941.195842301     A.U. after    4 cycles
 Optimization completed.
    -- Stationary point found.
 Normal termination of Gaussian 16 at Wed Nov 24 12:02:32 2021.

 ----------------------------------------------------------------------
 #N Geom=AllCheck Guess=TCheck SCRF=Check GenChk RM06/6-311++G(3df,3pd)
  Freq
 ----------------------------------------------------------------------

 Structure from the checkpoint file:  "/home/artemiy/opt/gaussian/scr/Gau-6512.chk"
 -------------------
 Title Card Required
 -------------------
 Charge =  0 Multiplicity = 1

                          Input orientation:
 ---------------------------------------------------------------------
 Center     Atomic      Atomic             Coordinates (Angstroms)
 Number     Number       Type             X           Y           Z
 ---------------------------------------------------------------------
      1          6           0        2.501095    0.283396    0.000225
      2          9           0        3.200769   -0.051550   -1.072236
      3          9           0        3.200525   -0.051360    1.072905
      4          9           0        2.338949    1.595735    0.000091
      5          6           0        1.167809   -0.440888    0.000137
      6          6           0       -0.014330    0.211559   -0.000090
      7          6           0       -1.225721   -0.558524   -0.000166
      8          8           0       -1.277471   -1.774235   -0.000041
      9          6           0       -2.535936    0.254782   -0.000407
     10          9           0       -2.576353    1.037815    1.074168
     11          9           0       -2.575969    1.037850   -1.074967
     12          9           0       -3.593186   -0.519034   -0.000611
     13          1           0       -0.045124    1.289284   -0.000215
     14          8           0        1.326592   -1.736788    0.000297
     15          1           0        0.430369   -2.151045    0.000225
 ---------------------------------------------------------------------

 SCF Done:  E(RM06) =  -941.195842301     A.U. after    1 cycles

 Alpha  occ. eigenvalues --  -24.84837 -24.84392 -24.84391 -24.84278 -24.84277
 Alpha  occ. eigenvalues --  -24.84166 -19.30051 -19.25975 -10.52848 -10.51804
 Alpha  occ. eigenvalues --  -10.38493 -10.38362 -10.28489  -1.39808  -1.39375
 Alpha  occ. eigenvalues --   -1.31064  -1.30695  -1.30668  -1.30395  -1.16918
 Alpha  occ. eigenvalues --   -1.12604  -0.86852  -0.81124  -0.77535  -0.71744
 Alpha  occ. eigenvalues --   -0.69456  -0.66056  -0.65778  -0.65443  -0.65318
 Alpha  occ. eigenvalues --   -0.62828  -0.59070  -0.55477  -0.53450  -0.53331
 Alpha  occ. eigenvalues --   -0.52804  -0.52761  -0.52016  -0.50884  -0.49517
 Alpha  occ. eigenvalues --   -0.49258  -0.48618  -0.47695  -0.46804  -0.46641
 Alpha  occ. eigenvalues --   -0.46566  -0.46009  -0.45193  -0.43326  -0.33502
 Alpha  occ. eigenvalues --   -0.31936
 Alpha virt. eigenvalues --   -0.10906  -0.04307  -0.02609  -0.01574  -0.00792
 Alpha virt. eigenvalues --    0.00091   0.00748   0.00876   0.01386   0.02239
 Alpha virt. eigenvalues --    0.02684   0.03464   0.03753   0.06286   0.06509

 Mulliken charges:
               1
     1  C    1.329164
     2  F   -0.374268
     3  F   -0.374272
     4  F   -0.425282
     5  C   -0.062684
     6  C    0.591835
     7  C   -0.040438
     8  O   -0.599831
     9  C    1.230670
    10  F   -0.354325
    11  F   -0.354336
    12  F   -0.430386
    13  H    0.065479
    14  O   -0.617221
    15  H    0.415893
 Sum of Mulliken charges =  -0.00000

 Dipole moment (field-independent basis, Debye):
    X=              0.2838    Y=              0.5330    Z=             -0.0001  Tot=              0.6038
 Quadrupole moment (field-independent basis, Debye-Ang):
   XX=            -78.4900   YY=            -71.2528   ZZ=            -70.0229
   XY=             -0.7936   XZ=             -0.0009   YZ=             -0.0000

  Exact polarizability:  98.458  -1.338  71.421   0.006  -0.002  54.067
 Approx polarizability: 123.882  -3.316 107.219   0.006  -0.004  77.407

                      1                      2                      3
                      A                      A                      A
 Frequencies --     23.7751                35.1758                93.2110
 Red. masses --     16.6977                16.3609                 8.3497
 Frc consts  --      0.0056                 0.0119                 0.0427
 IR Inten    --      0.1422                 0.1450                 1.0517

                      4                      5                      6
                      A                      A                      A
 Frequencies --    105.8408               120.8972               222.1178
 Red. masses --     14.6091                10.8446                13.3602
 Frc consts  --      0.0964                 0.0934                 0.3884
 IR Inten    --      0.9901                 3.5771                 3.1418

                      7                      8                      9
                      A                      A                      A
 Frequencies --    246.1989               255.6534               311.6660
 Red. masses --     12.6916                15.2313                10.4807
 Frc consts  --      0.4533                 0.5865                 0.5998
 IR Inten    --      1.6603                 0.6379                 0.0166

                     10                     11                     12
                      A                      A                      A
 Frequencies --    327.5123               360.1010               443.0602
 Red. masses --      8.8158                14.4060                11.4029
 Frc consts  --      0.5571                 1.1006                 1.3188
 IR Inten    --      4.2928                 1.3105                 0.1345

                     13                     14                     15
                      A                      A                      A
 Frequencies --    446.6414               523.5455               537.5815
 Red. masses --     12.6599                16.8635                14.4661
 Frc consts  --      1.4880                 2.7234                 2.4631
 IR Inten    --      0.6687                 0.1833                 2.9410

                     16                     17                     18
                      A                      A                      A
 Frequencies --    585.4415               598.3084               675.0005
 Red. masses --     15.1127                14.3435                10.4370
 Frc consts  --      3.0518                 3.0252                 2.8018
 IR Inten    --     13.4967                18.9529                63.9934

                     19                     20                     21
                      A                      A                      A
 Frequencies --    733.8345               767.1377               767.3167
 Red. masses --      4.8516                14.5467                 2.1376
 Frc consts  --      1.5393                 5.0438                 0.7415
 IR Inten    --      7.5984                11.3468                11.6323

                     22                     23                     24
                      A                      A                      A
 Frequencies --    834.3678               845.4998               859.5073
 Red. masses --      1.7801                12.7892                 1.3723
 Frc consts  --      0.7301                 5.3867                 0.5973
 IR Inten    --     16.7706                 2.8420                80.6893

                     25                     26                     27
                      A                      A                      A
 Frequencies --    941.5121              1111.8337              1138.2338
 Red. masses --      5.9078                 2.0166                 3.6901
 Frc consts  --      3.0855                 1.4687                 2.8168
 IR Inten    --     13.3689               133.4882                85.3519

                     28                     29                     30
                      A                      A                      A
 Frequencies --   1190.3485              1216.7459              1247.6798
 Red. masses --     13.0867                12.9087                10.6504
 Frc consts  --     10.9252                11.2599                 9.7684
 IR Inten    --    273.3841               298.7007               409.0804

                     31                     32                     33
                      A                      A                      A
 Frequencies --   1254.4636              1294.5558              1340.2290
 Red. masses --      8.1128                 5.2312                 2.1833
 Frc consts  --      7.5220                 5.1653                 2.3105
 IR Inten    --    145.0019               649.0201                38.5158

                     34                     35                     36
                      A                      A                      A
 Frequencies --   1411.3390              1489.6549              1672.1439
 Red. masses --      3.2563                 5.9514                 4.9246
 Frc consts  --      3.8215                 7.7811                 8.1128
 IR Inten    --     80.2833               124.4369               282.9455

                     37                     38                     39
                      A                      A                      A
 Frequencies --   1778.0623              3237.5092              3392.8977
 Red. masses --     11.1841                 1.0927                 1.0674
 Frc consts  --     20.8328                 6.7480                 7.2396
 IR Inten    --    159.6566                 5.1329               209.2210

 - Thermochemistry -
 -------------------
 Temperature   298.150 Kelvin.  Pressure   1.00000 Atm.
 Atom     1 has atomic number  6 and mass  12.00000

 Molecular mass:   207.99590 amu.
 Principal axes and moments of inertia in atomic units:
                           1         2         3
     Eigenvalues --  1054.819914711.294815140.56047
           X            1.00000   0.00034  -0.00013
           Y           -0.00034   1.00000   0.00011
           Z            0.00013  -0.00011   1.00000
 This molecule is an asymmetric top.
 Rotational symmetry number  1.
 Warning -- assumption of classical behavior for rotation
           may cause significant error
 Rotational temperatures (Kelvin)      0.08211     0.01838     0.01685
 Rotational constants (GHZ):           1.71095     0.38307     0.35108
 Zero-point vibrational energy     205976.6 (Joules/Mol)
                                   49.22959 (Kcal/Mol)
 Warning -- explicit consideration of  17 degrees of freedom as
           vibrations may cause significant error
 Vibrational temperatures:     34.21    50.61   134.11   152.28   173.94
          (Kelvin)            319.58   354.23   367.83   448.42   471.22
                              518.11   637.46   642.62   753.27   773.46
                              842.32   860.83   971.18  1055.82  1103.74
                             1104.00  1200.47  1216.49  1236.64  1354.63
                             1599.68  1637.66  1712.65  1750.63  1795.13
                             1804.89  1862.58  1928.29  2030.60  2143.28
                             2405.84  2558.24  4658.05  4881.62

 Zero-point correction=                           0.078452 (Hartree/Particle)
 Thermal correction to Energy=                    0.089906
 Thermal correction to Enthalpy=                  0.090850
 Thermal correction to Gibbs Free Energy=         0.038459
 Sum of electronic and zero-point Energies=           -941.117390
 Sum of electronic and thermal Energies=              -941.105936
 Sum of electronic and thermal Enthalpies=            -941.104992
 Sum of electronic and thermal Free Energies=         -941.157383

                     E (Thermal)             CV                S
                      KCal/Mol        Cal/Mol-Kelvin    Cal/Mol-Kelvin
 Total                   56.417             40.157            110.266
 Electronic               0.000              0.000              0.000
 Translational            0.889              2.981             41.901
 Rotational               0.889              2.981             31.613
 Vibrational             54.640             34.195             36.752
 Vibration     1          0.593              1.985              6.291
 Vibration     2          0.594              1.982              5.514
 Vibration     3          0.602              1.954              3.592
 Vibration     4          0.605              1.945              3.344
 Vibration     5          0.609              1.932              3.086
 Vibration     6          0.648              1.807              1.942
 Vibration     7          0.661              1.769              1.758
 Vibration     8          0.666              1.753              1.691
 Vibration     9          0.700              1.651              1.353
 Vibration    10          0.711              1.621              1.272
 Vibration    11          0.735              1.554              1.122
 Vibration    12          0.803              1.376              0.817
 Vibration    13          0.806              1.368              0.806
 Vibration    14          0.879              1.198              0.602
 Vibration    15          0.893              1.167              0.571
 Vibration    16          0.942              1.063              0.475
 Vibration    17          0.956              1.035              0.453

                           ! Non-Optimized Parameters !
 Normal termination of Gaussian 16 at Wed Nov 24 12:55:25 2021.
