 Gaussian 16, Revision A.03,
 Gaussian 16:  ES64L-G16RevA.03 25-Dec-2016

 -------------
 # g4 geom=gic
 -------------

 -------------------
 CAS 367-57-7
 -------------------
 Symbolic Z-matrix:
 Charge =  0 Multiplicity = 1

 SCF Done:  E(RB3LYP) =  -643.552522344     A.U. after   14 cycles
 SCF Done:  E(RB3LYP) =  -643.553580821     A.U. after   12 cycles
 SCF Done:  E(RB3LYP) =  -643.553904020     A.U. after   11 cycles
 SCF Done:  E(RB3LYP) =  -643.553970456     A.U. after   11 cycles
 SCF Done:  E(RB3LYP) =  -643.554013475     A.U. after   10 cycles
 SCF Done:  E(RB3LYP) =  -643.554022409     A.U. after    9 cycles
 SCF Done:  E(RB3LYP) =  -643.554013908     A.U. after   10 cycles
 SCF Done:  E(RB3LYP) =  -643.554024744     A.U. after    9 cycles
 SCF Done:  E(RB3LYP) =  -643.554025363     A.U. after    7 cycles
 Optimization completed.
    -- Stationary point found.
 Normal termination of Gaussian 16 at Wed Nov 17 09:17:04 2021.

 ----------------------------------------------------------
 #N Geom=AllCheck Guess=TCheck SCRF=Check B3LYP/GTBas3 Freq
 ----------------------------------------------------------

 Structure from the checkpoint file:  "/home/artemiy/opt/gaussian/scr/Gau-2016.chk"
 -------------------
 Title Card Required
 -------------------
 Charge =  0 Multiplicity = 1

 SCF Done:  E(RB3LYP) =  -643.554025363     A.U. after    1 cycles

  Exact polarizability:  86.913  -7.162  64.055  -0.001  -0.002  41.344
 Approx polarizability: 119.519 -11.266 108.210  -0.001  -0.005  63.966

                      1                      2                      3
                      A                      A                      A
 Frequencies --     37.7180                81.5665               116.3203
 Red. masses --      7.2922                 1.0865                 6.3478
 Frc consts  --      0.0061                 0.0043                 0.0506
 IR Inten    --      0.6589                 0.6869                 1.0154

                      4                      5                      6
                      A                      A                      A
 Frequencies --    142.2595               158.0292               283.3350
 Red. masses --      4.8388                 5.8736                 6.4235
 Frc consts  --      0.0577                 0.0864                 0.3038
 IR Inten    --      0.7780                 2.8742                 2.2521

                      7                      8                      9
                      A                      A                      A
 Frequencies --    296.8418               304.3727               378.5198
 Red. masses --     11.9759                 8.4291                 4.4232
 Frc consts  --      0.6217                 0.4601                 0.3734
 IR Inten    --      0.0162                 0.6553                 3.4956

                     10                     11                     12
                      A                      A                      A
 Frequencies --    430.8331               516.8143               579.5419
 Red. masses --      8.7236                13.6222                 6.8349
 Frc consts  --      0.9540                 2.1437                 1.3525
 IR Inten    --      0.6017                 1.4095                42.6195

                     13                     14                     15
                      A                      A                      A
 Frequencies --    588.5351               609.3436               725.4493
 Red. masses --      8.8543                 2.6274                 8.9289
 Frc consts  --      1.8070                 0.5748                 2.7686
 IR Inten    --      3.3282                 0.1827                12.9514

                     16                     17                     18
                      A                      A                      A
 Frequencies --    744.3611               821.9266               857.9112
 Red. masses --      4.6449                 1.2746                 6.5731
 Frc consts  --      1.5163                 0.5073                 2.8504
 IR Inten    --      0.5811                33.1181                10.4871

                     19                     20                     21
                      A                      A                      A
 Frequencies --    936.4162               971.6721               998.1246
 Red. masses --      3.1367                 1.0968                 2.0444
 Frc consts  --      1.6205                 0.6101                 1.2000
 IR Inten    --      8.0497                61.9567                14.0050

                     22                     23                     24
                      A                      A                      A
 Frequencies --   1044.8638              1132.9285              1203.8589
 Red. masses --      1.8780                 2.1058                12.6347
 Frc consts  --      1.2080                 1.5925                10.7886
 IR Inten    --      5.0416                59.5420               245.3589

                     25                     26                     27
                      A                      A                      A
 Frequencies --   1222.6036              1234.6363              1310.3955
 Red. masses --      4.8588                 3.8740                 3.9649
 Frc consts  --      4.2790                 3.4792                 4.0113
 IR Inten    --     80.0836               227.5449               491.4893

                     28                     29                     30
                      A                      A                      A
 Frequencies --   1385.4504              1411.9898              1462.9124
 Red. masses --      1.3177                 2.0174                 1.1078
 Frc consts  --      1.4902                 2.3697                 1.3969
 IR Inten    --     57.1689                92.0272                17.4222

                     31                     32                     33
                      A                      A                      A
 Frequencies --   1473.1925              1479.2026              1671.3529
 Red. masses --      1.0469                 3.4749                 2.7944
 Frc consts  --      1.3386                 4.4797                 4.5991
 IR Inten    --      6.7506                29.7180               150.9657

                     34                     35                     36
                      A                      A                      A
 Frequencies --   1710.0671              2985.0394              3040.5159
 Red. masses --      8.6129                 1.0727                 1.0373
 Frc consts  --     14.8396                 5.6315                 5.6498
 IR Inten    --    228.6745               335.1715                 2.1884

                     37                     38                     39
                      A                      A                      A
 Frequencies --   3100.9132              3158.2715              3247.5677
 Red. masses --      1.0984                 1.1016                 1.0915
 Frc consts  --      6.2228                 6.4739                 6.7823
 IR Inten    --      4.9910                 9.1919                 0.3264

 - Thermochemistry -
 -------------------
 Temperature   298.150 Kelvin.  Pressure   1.00000 Atm.
 Atom     1 has atomic number  6 and mass  12.00000

 Molecular mass:   154.02416 amu.
 Principal axes and moments of inertia in atomic units:
                           1         2         3
     Eigenvalues --   657.890112390.028892719.87653
           X            0.99958  -0.02897  -0.00001
           Y            0.02897   0.99958  -0.00000
           Z            0.00001   0.00000   1.00000
 This molecule is an asymmetric top.
 Rotational symmetry number  1.
 Warning -- assumption of classical behavior for rotation
           may cause significant error
 Rotational temperatures (Kelvin)      0.13165     0.03624     0.03184
 Rotational constants (GHZ):           2.74323     0.75511     0.66354
 Zero-point vibrational energy     262315.1 (Joules/Mol)
                                   62.69480 (Kcal/Mol)
 Warning -- explicit consideration of  14 degrees of freedom as
           vibrations may cause significant error
 Vibrational temperatures:     54.27   117.36   167.36   204.68   227.37
          (Kelvin)            407.66   427.09   437.92   544.61   619.87
                              743.58   833.83   846.77   876.71  1043.76
                             1070.97  1182.57  1234.34  1347.29  1398.02
                             1436.08  1503.33  1630.03  1732.08  1759.05
                             1776.37  1885.37  1993.35  2031.54  2104.80
                             2119.60  2128.24  2404.70  2460.41  4294.81
                             4374.62  4461.52  4544.05  4672.53

 Zero-point correction=                           0.099911 (Hartree/Particle)
 Thermal correction to Energy=                    0.109567
 Thermal correction to Enthalpy=                  0.110511
 Thermal correction to Gibbs Free Energy=         0.063759
 Sum of electronic and zero-point Energies=           -643.454115
 Sum of electronic and thermal Energies=              -643.444459
 Sum of electronic and thermal Enthalpies=            -643.443514
 Sum of electronic and thermal Free Energies=         -643.490266

                     E (Thermal)             CV                S
                      KCal/Mol        Cal/Mol-Kelvin    Cal/Mol-Kelvin
 Total                   68.754             33.755             98.397
 Electronic               0.000              0.000              0.000
 Translational            0.889              2.981             41.006
 Rotational               0.889              2.981             29.837
 Vibrational             66.977             27.793             27.554
 Vibration     1          0.594              1.982              5.375
 Vibration     2          0.600              1.962              3.853
 Vibration     3          0.608              1.936              3.161
 Vibration     4          0.616              1.911              2.773
 Vibration     5          0.621              1.894              2.573
 Vibration     6          0.682              1.705              1.513
 Vibration     7          0.690              1.680              1.435
 Vibration     8          0.695              1.665              1.393
 Vibration     9          0.749              1.516              1.045
 Vibration    10          0.792              1.403              0.856
 Vibration    11          0.872              1.213              0.617
 Vibration    12          0.936              1.076              0.486
 Vibration    13          0.946              1.056              0.470
 Vibration    14          0.968              1.012              0.434

                           ! Non-Optimized Parameters !
 Normal termination of Gaussian 16 at Wed Nov 17 09:26:33 2021.

 -----------------------------------------------------------------
 #N Geom=AllCheck Guess=TCheck SCRF=Check CCSD(T,E4T,FrzG4)/GTBas1
 -----------------------------------------------------------------

 Structure from the checkpoint file:  "/home/artemiy/opt/gaussian/scr/Gau-2016.chk"
 -------------------
 Title Card Required
 -------------------
 Charge =  0 Multiplicity = 1

 SCF Done:  E(RHF) =  -640.288879705     A.U. after   14 cycles
 E2 =    -0.1501678590D+01 EUMP2 =    -0.64179055829475D+03
 CCSD(T)= -0.64187445999D+03
 \MP4SDQ=-641.8316503\CCSD=-641.8259367\CCSD(T)=-641.87446\RMSD=4.585e-
 Normal termination of Gaussian 16 at Wed Nov 17 10:52:52 2021.

 ---------------------------------------------------------
 #N Geom=AllCheck Guess=TCheck SCRF=Check MP4=FrzG4/GTBas2
 ---------------------------------------------------------

 Structure from the checkpoint file:  "/home/artemiy/opt/gaussian/scr/Gau-2016.chk"
 -------------------
 Title Card Required
 -------------------
 Charge =  0 Multiplicity = 1

 SCF Done:  E(RHF) =  -640.308410644     A.U. after   13 cycles
 E2 =    -0.1527231441D+01 EUMP2 =    -0.64183564208460D+03
 Normal termination of Gaussian 16 at Wed Nov 17 11:25:00 2021.

 ---------------------------------------------------------
 #N Geom=AllCheck Guess=TCheck SCRF=Check MP4=FrzG4/GTBas3
 ---------------------------------------------------------

 Structure from the checkpoint file:  "/home/artemiy/opt/gaussian/scr/Gau-2016.chk"
 -------------------
 Title Card Required
 -------------------
 Charge =  0 Multiplicity = 1

 SCF Done:  E(RHF) =  -640.340872231     A.U. after   12 cycles
 E2 =    -0.1872910281D+01 EUMP2 =    -0.64221378251191D+03
 Normal termination of Gaussian 16 at Wed Nov 17 14:59:52 2021.

 -----------------------------------------------------------
 #N Geom=AllCheck Guess=TCheck SCRF=Check MP2=Full/GTLargeXP
 -----------------------------------------------------------

 Structure from the checkpoint file:  "/home/artemiy/opt/gaussian/scr/Gau-2016.chk"
 -------------------
 Title Card Required
 -------------------
 Charge =  0 Multiplicity = 1

 SCF Done:  E(RHF) =  -640.526314460     A.U. after   13 cycles
 E2 =    -0.2482152255D+01 EUMP2 =    -0.64300846671486D+03
 Normal termination of Gaussian 16 at Wed Nov 17 15:38:29 2021.
 SCF Done:  E(RHF) =  -640.582683153     A.U. after    9 cycles
 Normal termination of Gaussian 16 at Wed Nov 17 15:53:49 2021.

                         Standard orientation:
 ---------------------------------------------------------------------
 Center     Atomic      Atomic             Coordinates (Angstroms)
 Number     Number       Type             X           Y           Z
 ---------------------------------------------------------------------
      1          6           0        1.666871    0.197947   -0.000026
      2          9           0        2.306289   -0.256377    1.081395
      3          9           0        1.744907    1.532215   -0.001260
      4          9           0        2.307448   -0.258497   -1.079789
      5          6           0        0.221367   -0.272976   -0.000224
      6          6           0       -0.830504    0.585689   -0.000321
      7          6           0       -2.177702    0.042717   -0.000245
      8          8           0       -2.374012   -1.181927   -0.000066
      9          6           0       -3.342626    1.002022    0.000219
     10          1           0       -3.296970    1.652612   -0.880003
     11          1           0       -3.296747    1.652021    0.880872
     12          1           0       -4.280927    0.447127    0.000175
     13          1           0       -0.660551    1.651754   -0.000494
     14          8           0        0.118624   -1.584345    0.000012
     15          1           0       -0.873938   -1.761811    0.000351
 ---------------------------------------------------------------------

 SCF Done:  E(RHF) =  -640.594381663     A.U. after    7 cycles

 The electronic state is 1-A.
 Alpha  occ. eigenvalues --  -26.35306 -26.34819 -26.34816 -20.61229 -20.56952
 Alpha  occ. eigenvalues --  -11.52835 -11.36983 -11.36570 -11.25415 -11.25319
 Alpha  occ. eigenvalues --   -1.74617  -1.65186  -1.64775  -1.45615  -1.40322
 Alpha  occ. eigenvalues --   -1.10945  -1.04273  -0.99716  -0.90418  -0.84550
 Alpha  occ. eigenvalues --   -0.83900  -0.80287  -0.79146  -0.72714  -0.72577
 Alpha  occ. eigenvalues --   -0.71192  -0.69022  -0.68004  -0.67681  -0.66319
 Alpha  occ. eigenvalues --   -0.63310  -0.63177  -0.61412  -0.60252  -0.57639
 Alpha  occ. eigenvalues --   -0.56885  -0.53023  -0.44976  -0.38676
 Alpha virt. eigenvalues --    0.02772   0.04196   0.04946   0.05115   0.05767
 Alpha virt. eigenvalues --    0.06172   0.06346   0.06571   0.07566   0.07828
 Alpha virt. eigenvalues --    0.08268   0.08734   0.09991   0.10855   0.11270

 Mulliken charges:
               1
     1  C    0.719883
     2  F   -0.267546
     3  F   -0.294750
     4  F   -0.267479
     5  C    0.409002
     6  C   -0.347742
     7  C    0.547105
     8  O   -0.610043
     9  C   -0.629286
    10  H    0.207785
    11  H    0.207796
    12  H    0.215630
    13  H    0.230963
    14  O   -0.574494
    15  H    0.453174
 Sum of Mulliken charges =  -0.00000

 Dipole moment (field-independent basis, Debye):
    X=             -2.4243    Y=              2.9109    Z=             -0.0002  Tot=              3.7882
 Quadrupole moment (field-independent basis, Debye-Ang):
   XX=            -55.9524   YY=            -57.7856   ZZ=            -56.7507
   XY=             -6.2767   XZ=             -0.0019   YZ=             -0.0011

 Normal termination of Gaussian 16 at Wed Nov 17 17:51:16 2021.
