 Gaussian 16, Revision A.03,
 Gaussian 16:  ES64L-G16RevA.03 25-Dec-2016

 -------------
 # g4 geom=gic
 -------------

 -------------------
 CAS 1522-22-1
 -------------------
 Symbolic Z-matrix:
 Charge =  0 Multiplicity = 1

 SCF Done:  E(RB3LYP) =  -941.258568088     A.U. after   14 cycles
 SCF Done:  E(RB3LYP) =  -941.273603452     A.U. after   12 cycles
 SCF Done:  E(RB3LYP) =  -941.274168645     A.U. after   11 cycles
 SCF Done:  E(RB3LYP) =  -941.274272705     A.U. after   10 cycles
 SCF Done:  E(RB3LYP) =  -941.274271731     A.U. after   10 cycles
 SCF Done:  E(RB3LYP) =  -941.274278688     A.U. after   10 cycles
 SCF Done:  E(RB3LYP) =  -941.274289330     A.U. after    9 cycles
 SCF Done:  E(RB3LYP) =  -941.274288506     A.U. after   11 cycles
 SCF Done:  E(RB3LYP) =  -941.274301048     A.U. after   11 cycles
 SCF Done:  E(RB3LYP) =  -941.274304966     A.U. after    9 cycles
 SCF Done:  E(RB3LYP) =  -941.274309411     A.U. after    9 cycles
 SCF Done:  E(RB3LYP) =  -941.274309649     A.U. after    9 cycles
 SCF Done:  E(RB3LYP) =  -941.274309681     A.U. after    7 cycles
 Optimization completed.
    -- Stationary point found.
 Normal termination of Gaussian 16 at Wed Dec  1 21:21:59 2021.

 ----------------------------------------------------------
 #N Geom=AllCheck Guess=TCheck SCRF=Check B3LYP/GTBas3 Freq
 ----------------------------------------------------------

 Structure from the checkpoint file:  "/home/artemiy/opt/gaussian/scr/Gau-1864.chk"
 -------------------
 Title Card Required
 -------------------
 Charge =  0 Multiplicity = 1

 SCF Done:  E(RB3LYP) =  -941.274309681     A.U. after    1 cycles

  Exact polarizability:  91.651   1.168  63.291   0.212   0.119  43.886
 Approx polarizability: 130.439   3.148 107.128   0.628   0.371  69.090

                      1                      2                      3
                      A                      A                      A
 Frequencies --      6.7191                30.0318               101.1443
 Red. masses --     17.0183                16.8665                 7.8724
 Frc consts  --      0.0005                 0.0090                 0.0475
 IR Inten    --      0.0413                 0.0509                 1.2782

                      4                      5                      6
                      A                      A                      A
 Frequencies --    108.8659               118.5845               226.3724
 Red. masses --     14.1153                12.0401                13.9637
 Frc consts  --      0.0986                 0.0998                 0.4216
 IR Inten    --      1.2249                 1.8694                 1.2611

                      7                      8                      9
                      A                      A                      A
 Frequencies --    237.5428               263.8481               308.7148
 Red. masses --     12.6755                16.4408                10.7386
 Frc consts  --      0.4214                 0.6743                 0.6030
 IR Inten    --      2.3714                 0.5887                 0.0668

                     10                     11                     12
                      A                      A                      A
 Frequencies --    320.4366               354.2958               433.8763
 Red. masses --      8.7229                13.4420                11.5989
 Frc consts  --      0.5277                 0.9941                 1.2865
 IR Inten    --      4.0484                 0.9596                 0.1287

                     13                     14                     15
                      A                      A                      A
 Frequencies --    441.4922               513.1993               526.1207
 Red. masses --     12.9834                17.1568                15.0479
 Frc consts  --      1.4910                 2.6623                 2.4541
 IR Inten    --      1.0942                 0.2269                 4.0060

                     16                     17                     18
                      A                      A                      A
 Frequencies --    576.4898               588.4847               666.2997
 Red. masses --     15.6287                13.9671                11.3791
 Frc consts  --      3.0602                 2.8499                 2.9764
 IR Inten    --      3.8732                17.4653                67.5060

                     19                     20                     21
                      A                      A                      A
 Frequencies --    736.7777               746.4522               781.7919
 Red. masses --      9.5257                14.9475                 2.7845
 Frc consts  --      3.0466                 4.9071                 1.0027
 IR Inten    --      1.0148                 8.6967                 1.3616

                     22                     23                     24
                      A                      A                      A
 Frequencies --    826.6020               847.6358               931.7100
 Red. masses --     12.6677                 1.5796                 1.1375
 Frc consts  --      5.0997                 0.6687                 0.5818
 IR Inten    --      4.6246                42.8770                63.7266

                     25                     26                     27
                      A                      A                      A
 Frequencies --    937.8912              1112.9487              1134.4371
 Red. masses --      6.1039                 3.2562                 2.8211
 Frc consts  --      3.1634                 2.3764                 2.1391
 IR Inten    --     10.3568               160.8677                38.4145

                     28                     29                     30
                      A                      A                      A
 Frequencies --   1204.0320              1211.2541              1234.0854
 Red. masses --     12.9710                12.7503                11.4469
 Frc consts  --     11.0790                11.0215                10.2713
 IR Inten    --    271.2504               206.4421                94.4975

                     31                     32                     33
                      A                      A                      A
 Frequencies --   1237.8469              1270.9005              1340.9806
 Red. masses --     11.1679                 3.7946                 3.9327
 Frc consts  --     10.0822                 3.6111                 4.1667
 IR Inten    --    449.4420               499.3646                21.5682

                     34                     35                     36
                      A                      A                      A
 Frequencies --   1419.3615              1482.7358              1660.3661
 Red. masses --      2.5045                 4.1405                 3.0563
 Frc consts  --      2.9727                 5.3633                 4.9642
 IR Inten    --    120.6316                72.4201               261.0582

                     37                     38                     39
                      A                      A                      A
 Frequencies --   1718.8505              3104.1343              3276.1769
 Red. masses --     10.5375                 1.0711                 1.0917
 Frc consts  --     18.3428                 6.0809                 6.9039
 IR Inten    --    112.7951               238.9388                 5.3106

 - Thermochemistry -
 -------------------
 Temperature   298.150 Kelvin.  Pressure   1.00000 Atm.
 Atom     1 has atomic number  6 and mass  12.00000

 Molecular mass:   207.99590 amu.
 Principal axes and moments of inertia in atomic units:
                           1         2         3
     Eigenvalues --  1054.872874824.290495244.21343
           X            1.00000   0.00073   0.00005
           Y           -0.00073   1.00000   0.00050
           Z           -0.00005  -0.00050   1.00000
 This molecule is an asymmetric top.
 Rotational symmetry number  1.
 Warning -- assumption of classical behavior for rotation
           may cause significant error
 Rotational temperatures (Kelvin)      0.08211     0.01795     0.01652
 Rotational constants (GHZ):           1.71086     0.37409     0.34414
 Zero-point vibrational energy     203601.4 (Joules/Mol)
                                   48.66189 (Kcal/Mol)
 Warning -- explicit consideration of  17 degrees of freedom as
           vibrations may cause significant error
 Vibrational temperatures:      9.67    43.21   145.52   156.63   170.62
          (Kelvin)            325.70   341.77   379.62   444.17   461.04
                              509.75   624.25   635.21   738.38   756.97
                              829.44   846.70   958.66  1060.06  1073.98
                             1124.82  1189.30  1219.56  1340.52  1349.42
                             1601.28  1632.20  1732.33  1742.72  1775.57
                             1780.99  1828.54  1929.37  2042.14  2133.33
                             2388.90  2473.04  4466.16  4713.69

 Zero-point correction=                           0.077548 (Hartree/Particle)
 Thermal correction to Energy=                    0.089080
 Thermal correction to Enthalpy=                  0.090025
 Thermal correction to Gibbs Free Energy=         0.036276
 Sum of electronic and zero-point Energies=           -941.196762
 Sum of electronic and thermal Energies=              -941.185229
 Sum of electronic and thermal Enthalpies=            -941.184285
 Sum of electronic and thermal Free Energies=         -941.238034

                     E (Thermal)             CV                S
                      KCal/Mol        Cal/Mol-Kelvin    Cal/Mol-Kelvin
 Total                   55.899             40.270            113.124
 Electronic               0.000              0.000              0.000
 Translational            0.889              2.981             41.901
 Rotational               0.889              2.981             31.657
 Vibrational             54.121             34.308             39.566
 Vibration     1          0.593              1.987              8.801
 Vibration     2          0.594              1.984              5.827
 Vibration     3          0.604              1.948              3.432
 Vibration     4          0.606              1.942              3.289
 Vibration     5          0.609              1.934              3.123
 Vibration     6          0.650              1.801              1.908
 Vibration     7          0.656              1.783              1.821
 Vibration     8          0.670              1.739              1.636
 Vibration     9          0.698              1.657              1.369
 Vibration    10          0.706              1.634              1.308
 Vibration    11          0.730              1.566              1.147
 Vibration    12          0.795              1.396              0.846
 Vibration    13          0.801              1.380              0.822
 Vibration    14          0.868              1.221              0.626
 Vibration    15          0.881              1.192              0.596
 Vibration    16          0.933              1.082              0.492
 Vibration    17          0.946              1.056              0.470

 Optimization completed.
    -- Stationary point found.
 Normal termination of Gaussian 16 at Wed Dec  1 21:33:26 2021.

 -----------------------------------------------------------------
 #N Geom=AllCheck Guess=TCheck SCRF=Check CCSD(T,E4T,FrzG4)/GTBas1
 -----------------------------------------------------------------

 Structure from the checkpoint file:  "/home/artemiy/opt/gaussian/scr/Gau-1864.chk"
 -------------------
 Title Card Required
 -------------------
 Charge =  0 Multiplicity = 1

 SCF Done:  E(RHF) =  -936.854567127     A.U. after   14 cycles
 E2 =    -0.2005900740D+01 EUMP2 =    -0.93886046786756D+03
 CCSD(T)= -0.93894506386D+03
 P4SDQ=-938.8937411\CCSD=-938.8839526\CCSD(T)=-938.9450639\RMSD=3.364e-
 Normal termination of Gaussian 16 at Wed Dec  1 22:41:35 2021.

 ---------------------------------------------------------
 #N Geom=AllCheck Guess=TCheck SCRF=Check MP4=FrzG4/GTBas2
 ---------------------------------------------------------

 Structure from the checkpoint file:  "/home/artemiy/opt/gaussian/scr/Gau-1864.chk"
 -------------------
 Title Card Required
 -------------------
 Charge =  0 Multiplicity = 1

 SCF Done:  E(RHF) =  -936.883610118     A.U. after   13 cycles
 E2 =    -0.2043781305D+01 EUMP2 =    -0.93892739142317D+03
 Normal termination of Gaussian 16 at Wed Dec  1 23:49:23 2021.

 ---------------------------------------------------------
 #N Geom=AllCheck Guess=TCheck SCRF=Check MP4=FrzG4/GTBas3
 ---------------------------------------------------------

 Structure from the checkpoint file:  "/home/artemiy/opt/gaussian/scr/Gau-1864.chk"
 -------------------
 Title Card Required
 -------------------
 Charge =  0 Multiplicity = 1

 SCF Done:  E(RHF) =  -936.917630111     A.U. after   12 cycles
 E2 =    -0.2523567459D+01 EUMP2 =    -0.93944119756999D+03
 Normal termination of Gaussian 16 at Thu Dec  2 05:13:29 2021.

 -----------------------------------------------------------
 #N Geom=AllCheck Guess=TCheck SCRF=Check MP2=Full/GTLargeXP
 -----------------------------------------------------------

 Structure from the checkpoint file:  "/home/artemiy/opt/gaussian/scr/Gau-1864.chk"
 -------------------
 Title Card Required
 -------------------
 Charge =  0 Multiplicity = 1

 SCF Done:  E(RHF) =  -937.201399626     A.U. after   13 cycles
 E2 =    -0.3356832287D+01 EUMP2 =    -0.94055823191377D+03
 Normal termination of Gaussian 16 at Thu Dec  2 05:39:14 2021.
 SCF Done:  E(RHF) =  -937.286290798     A.U. after    9 cycles
 Normal termination of Gaussian 16 at Thu Dec  2 05:57:18 2021.

                         Standard orientation:
 ---------------------------------------------------------------------
 Center     Atomic      Atomic             Coordinates (Angstroms)
 Number     Number       Type             X           Y           Z
 ---------------------------------------------------------------------
      1          6           0        2.537740   -0.306225    0.001098
      2          9           0        3.222647    0.030549    1.095107
      3          9           0        3.250103    0.057264   -1.066590
      4          9           0        2.394914   -1.632474   -0.017205
      5          6           0        1.183861    0.392070   -0.007375
      6          6           0        0.004868   -0.291276   -0.032452
      7          6           0       -1.212026    0.471168   -0.030000
      8          8           0       -1.257915    1.703072   -0.021197
      9          6           0       -2.560464   -0.286923   -0.002514
     10          9           0       -2.410411   -1.572208   -0.345510
     11          9           0       -3.068468   -0.244057    1.233127
     12          9           0       -3.427930    0.275173   -0.836912
     13          1           0       -0.007808   -1.368460   -0.049914
     14          8           0        1.292863    1.698575    0.010784
     15          1           0        0.356641    2.054159    0.002540
 ---------------------------------------------------------------------

 SCF Done:  E(RHF) =  -937.304057284     A.U. after    7 cycles

 The electronic state is 1-A.
 Alpha  occ. eigenvalues --  -26.36874 -26.36621 -26.36452 -26.36450 -26.36262
 Alpha  occ. eigenvalues --  -26.36111 -20.64336 -20.60761 -11.54689 -11.53929
 Alpha  occ. eigenvalues --  -11.40340 -11.40037 -11.27850  -1.76309  -1.75943
 Alpha  occ. eigenvalues --   -1.66839  -1.66479  -1.66462  -1.66213  -1.48759
 Alpha  occ. eigenvalues --   -1.44141  -1.13619  -1.06071  -1.01897  -0.93360
 Alpha  occ. eigenvalues --   -0.90487  -0.85938  -0.85585  -0.85257  -0.85225
 Alpha  occ. eigenvalues --   -0.81684  -0.79450  -0.74927  -0.74222  -0.74179
 Alpha  occ. eigenvalues --   -0.73802  -0.72759  -0.70598  -0.69668  -0.69488
 Alpha  occ. eigenvalues --   -0.69335  -0.68855  -0.67898  -0.67637  -0.64699
 Alpha  occ. eigenvalues --   -0.64521  -0.63159  -0.59854  -0.58561  -0.48773
 Alpha  occ. eigenvalues --   -0.41149
 Alpha virt. eigenvalues --    0.02246   0.03741   0.04204   0.04514   0.04780
 Alpha virt. eigenvalues --    0.05718   0.06249   0.06524   0.07322   0.07698
 Alpha virt. eigenvalues --    0.08183   0.08507   0.09617   0.10438   0.10683

 Mulliken charges:
               1
     1  C    0.725099
     2  F   -0.262307
     3  F   -0.262143
     4  F   -0.289527
     5  C    0.422280
     6  C   -0.341664
     7  C    0.517933
     8  O   -0.561568
     9  C    0.705005
    10  F   -0.285694
    11  F   -0.267712
    12  F   -0.256151
    13  H    0.256285
    14  O   -0.553156
    15  H    0.453319
 Sum of Mulliken charges =  -0.00000

 Dipole moment (field-independent basis, Debye):
    X=              0.3017    Y=             -1.1060    Z=             -0.1066  Tot=              1.1513
 Quadrupole moment (field-independent basis, Debye-Ang):
   XX=            -79.7546   YY=            -72.6790   ZZ=            -70.4495
   XY=              0.9191   XZ=              0.1229   YZ=              0.0246

 Normal termination of Gaussian 16 at Thu Dec  2 08:20:33 2021.
