 Gaussian 16, Revision A.03,
 Gaussian 16:  ES64L-G16RevA.03 25-Dec-2016

 ----------------------------------------------------------------------
 # opt=(tight) freq B3LYP/6-311++G(3df,3pd) nosymm int=ultrafinegrid sc
 f=(tight,ssd,noincfock,xqc,fdiag,novaracc)
 ----------------------------------------------------------------------

 -------------------
 CAS 1522-22-1
 -------------------
 Symbolic Z-matrix:
 Charge =  0 Multiplicity = 1

 SCF Done:  E(RB3LYP) =  -941.587128493     A.U. after   13 cycles
 SCF Done:  E(RB3LYP) =  -941.588039892     A.U. after   11 cycles
 SCF Done:  E(RB3LYP) =  -941.588287460     A.U. after   10 cycles
 SCF Done:  E(RB3LYP) =  -941.588301493     A.U. after   10 cycles
 SCF Done:  E(RB3LYP) =  -941.588321823     A.U. after    9 cycles
 SCF Done:  E(RB3LYP) =  -941.588322641     A.U. after    8 cycles
 SCF Done:  E(RB3LYP) =  -941.588322472     A.U. after    8 cycles
 SCF Done:  E(RB3LYP) =  -941.588323064     A.U. after    7 cycles
 SCF Done:  E(RB3LYP) =  -941.588323078     A.U. after    6 cycles
 SCF Done:  E(RB3LYP) =  -941.588323077     A.U. after    6 cycles
 SCF Done:  E(RB3LYP) =  -941.588323081     A.U. after    6 cycles
 SCF Done:  E(RB3LYP) =  -941.588323081     A.U. after    5 cycles
 SCF Done:  E(RB3LYP) =  -941.588323081     A.U. after    5 cycles
 SCF Done:  E(RB3LYP) =  -941.588323081     A.U. after    5 cycles
 SCF Done:  E(RB3LYP) =  -941.588323081     A.U. after    5 cycles
 SCF Done:  E(RB3LYP) =  -941.588323081     A.U. after    5 cycles
 Optimization completed.
    -- Stationary point found.
 Normal termination of Gaussian 16 at Fri Nov 26 09:53:38 2021.

 ----------------------------------------------------------------------
 #N Geom=AllCheck Guess=TCheck SCRF=Check GenChk RB3LYP/6-311++G(3df,3p
 d) Freq
 ----------------------------------------------------------------------

 Structure from the checkpoint file:  "/home/artemiy/opt/gaussian/scr/Gau-1818.chk"
 -------------------
 Title Card Required
 -------------------
 Charge =  0 Multiplicity = 1

                          Input orientation:
 ---------------------------------------------------------------------
 Center     Atomic      Atomic             Coordinates (Angstroms)
 Number     Number       Type             X           Y           Z
 ---------------------------------------------------------------------
      1          6           0        2.521616    0.278204    0.000241
      2          9           0        3.232069   -0.057521   -1.082713
      3          9           0        3.231810   -0.057368    1.083411
      4          9           0        2.364494    1.606414    0.000129
      5          6           0        1.177514   -0.441205    0.000129
      6          6           0       -0.007198    0.220880   -0.000076
      7          6           0       -1.222313   -0.547997   -0.000170
      8          8           0       -1.266061   -1.772661   -0.000079
      9          6           0       -2.552370    0.249699   -0.000399
     10          9           0       -2.613846    1.041459    1.084900
     11          9           0       -2.613578    1.041280   -1.085844
     12          9           0       -3.608364   -0.549409   -0.000464
     13          1           0       -0.032318    1.296752   -0.000162
     14          8           0        1.312522   -1.746430    0.000250
     15          1           0        0.398042   -2.135099    0.000163
 ---------------------------------------------------------------------

 SCF Done:  E(RB3LYP) =  -941.588323081     A.U. after    1 cycles

 Alpha  occ. eigenvalues --  -24.74883 -24.74453 -24.74452 -24.74316 -24.74315
 Alpha  occ. eigenvalues --  -24.74212 -19.21583 -19.17816 -10.46422 -10.45395
 Alpha  occ. eigenvalues --  -10.32281 -10.32171 -10.22670  -1.35492  -1.35046
 Alpha  occ. eigenvalues --   -1.26719  -1.26369  -1.26314  -1.26045  -1.14436
 Alpha  occ. eigenvalues --   -1.10312  -0.85608  -0.79441  -0.75831  -0.69673
 Alpha  occ. eigenvalues --   -0.67450  -0.63656  -0.63284  -0.62926  -0.62850
 Alpha  occ. eigenvalues --   -0.61070  -0.57517  -0.54413  -0.51852  -0.51173
 Alpha  occ. eigenvalues --   -0.50602  -0.50577  -0.50085  -0.48986  -0.47469
 Alpha  occ. eigenvalues --   -0.47267  -0.46644  -0.45803  -0.44971  -0.44849
 Alpha  occ. eigenvalues --   -0.44729  -0.44585  -0.43409  -0.42228  -0.32517
 Alpha  occ. eigenvalues --   -0.30876
 Alpha virt. eigenvalues --   -0.12208  -0.01295  -0.00540   0.00978   0.02179
 Alpha virt. eigenvalues --    0.03367   0.04297   0.04730   0.05566   0.05966
 Alpha virt. eigenvalues --    0.06926   0.07224   0.07992   0.08721   0.10469

 Mulliken charges:
               1
     1  C    1.660327
     2  F   -0.445530
     3  F   -0.445530
     4  F   -0.496564
     5  C    0.266897
     6  C    0.109206
     7  C    0.194969
     8  O   -0.809124
     9  C    1.579086
    10  F   -0.432257
    11  F   -0.432256
    12  F   -0.492771
    13  H    0.026632
    14  O   -0.835508
    15  H    0.552423
 Sum of Mulliken charges =  -0.00000

 Dipole moment (field-independent basis, Debye):
    X=              0.2797    Y=              0.6126    Z=             -0.0000  Tot=              0.6734
 Quadrupole moment (field-independent basis, Debye-Ang):
   XX=            -79.5229   YY=            -72.0864   ZZ=            -70.6380
   XY=             -0.6897   XZ=             -0.0011   YZ=             -0.0000

  Exact polarizability: 101.218  -1.177  72.793   0.006  -0.002  54.938
 Approx polarizability: 137.051  -3.444 115.340   0.007  -0.003  82.306

                      1                      2                      3
                      A                      A                      A
 Frequencies --     13.4391                31.0947                94.5809
 Red. masses --     16.5168                16.1040                 7.7509
 Frc consts  --      0.0018                 0.0092                 0.0409
 IR Inten    --      0.1622                 0.0547                 1.8409

                      4                      5                      6
                      A                      A                      A
 Frequencies --    102.6959               121.0867               216.7892
 Red. masses --     14.4497                12.1724                13.5840
 Frc consts  --      0.0898                 0.1052                 0.3761
 IR Inten    --      1.1837                 2.6136                 3.1858

                      7                      8                      9
                      A                      A                      A
 Frequencies --    239.5732               256.5977               310.3926
 Red. masses --     11.9345                15.6236                10.5770
 Frc consts  --      0.4036                 0.6061                 0.6004
 IR Inten    --      2.0141                 0.5484                 0.0537

                     10                     11                     12
                      A                      A                      A
 Frequencies --    317.1990               359.4016               431.9393
 Red. masses --      8.8711                14.3310                11.7104
 Frc consts  --      0.5259                 1.0907                 1.2873
 IR Inten    --      4.8140                 0.6891                 0.2476

                     13                     14                     15
                      A                      A                      A
 Frequencies --    435.4794               510.2108               524.4769
 Red. masses --     12.8461                17.0987                14.9713
 Frc consts  --      1.4353                 2.6225                 2.4264
 IR Inten    --      0.3710                 0.1184                 2.0433

                     16                     17                     18
                      A                      A                      A
 Frequencies --    569.2588               583.2147               662.2936
 Red. masses --     15.5242                14.0605                10.9535
 Frc consts  --      2.9640                 2.8178                 2.8308
 IR Inten    --      6.8617                18.7408                63.2386

                     19                     20                     21
                      A                      A                      A
 Frequencies --    727.7455               741.0542               768.2668
 Red. masses --      7.6501                15.3900                 2.4570
 Frc consts  --      2.3871                 4.9795                 0.8544
 IR Inten    --      2.3715                 7.6898                 2.9151

                     22                     23                     24
                      A                      A                      A
 Frequencies --    816.3325               843.0963               902.3661
 Red. masses --     12.8785                 1.7944                 1.1462
 Frc consts  --      5.0565                 0.7515                 0.5499
 IR Inten    --      7.3288                43.5092                61.4209

                     25                     26                     27
                      A                      A                      A
 Frequencies --    934.5574              1104.8039              1132.3162
 Red. masses --      5.9522                 6.9838                 2.2185
 Frc consts  --      3.0630                 5.0224                 1.6759
 IR Inten    --     15.5216               162.9135                86.6442

                     28                     29                     30
                      A                      A                      A
 Frequencies --   1136.6499              1162.1620              1192.7729
 Red. masses --     12.9589                12.6585                11.9398
 Frc consts  --      9.8644                10.0732                10.0084
 IR Inten    --    261.7538               275.1456               330.7265

                     31                     32                     33
                      A                      A                      A
 Frequencies --   1205.1143              1265.9175              1320.6065
 Red. masses --      8.9475                 3.4872                 3.6512
 Frc consts  --      7.6561                 3.2926                 3.7517
 IR Inten    --    244.2551               523.8678                16.0122

                     34                     35                     36
                      A                      A                      A
 Frequencies --   1404.3058              1469.1426              1650.6135
 Red. masses --      2.3051                 3.9138                 3.6285
 Frc consts  --      2.6783                 4.9771                 5.8246
 IR Inten    --    115.0958                84.6154               257.4764

                     37                     38                     39
                      A                      A                      A
 Frequencies --   1723.1340              3227.4407              3253.6969
 Red. masses --     10.3400                 1.0689                 1.0924
 Frc consts  --     18.0887                 6.5600                 6.8136
 IR Inten    --    143.5783               227.5064                 5.4928

 - Thermochemistry -
 -------------------
 Temperature   298.150 Kelvin.  Pressure   1.00000 Atm.
 Atom     1 has atomic number  6 and mass  12.00000

 Molecular mass:   207.99590 amu.
 Principal axes and moments of inertia in atomic units:
                           1         2         3
     Eigenvalues --  1067.500884791.588375221.06411
           X            1.00000  -0.00023  -0.00013
           Y            0.00023   1.00000   0.00008
           Z            0.00013  -0.00008   1.00000
 This molecule is an asymmetric top.
 Rotational symmetry number  1.
 Warning -- assumption of classical behavior for rotation
           may cause significant error
 Rotational temperatures (Kelvin)      0.08114     0.01808     0.01659
 Rotational constants (GHZ):           1.69062     0.37665     0.34567
 Zero-point vibrational energy     201940.5 (Joules/Mol)
                                   48.26494 (Kcal/Mol)
 Warning -- explicit consideration of  17 degrees of freedom as
           vibrations may cause significant error
 Vibrational temperatures:     19.34    44.74   136.08   147.76   174.22
          (Kelvin)            311.91   344.69   369.19   446.59   456.38
                              517.10   621.46   626.56   734.08   754.61
                              819.04   839.12   952.89  1047.06  1066.21
                             1105.36  1174.52  1213.03  1298.30  1344.62
                             1589.57  1629.15  1635.39  1672.09  1716.13
                             1733.89  1821.37  1900.06  2020.48  2113.77
                             2374.86  2479.21  4643.57  4681.34

 Zero-point correction=                           0.076915 (Hartree/Particle)
 Thermal correction to Energy=                    0.088523
 Thermal correction to Enthalpy=                  0.089467
 Thermal correction to Gibbs Free Energy=         0.036186
 Sum of electronic and zero-point Energies=           -941.511408
 Sum of electronic and thermal Energies=              -941.499800
 Sum of electronic and thermal Enthalpies=            -941.498856
 Sum of electronic and thermal Free Energies=         -941.552137

                     E (Thermal)             CV                S
                      KCal/Mol        Cal/Mol-Kelvin    Cal/Mol-Kelvin
 Total                   55.549             40.629            112.139
 Electronic               0.000              0.000              0.000
 Translational            0.889              2.981             41.901
 Rotational               0.889              2.981             31.657
 Vibrational             53.771             34.667             38.581
 Vibration     1          0.593              1.987              7.424
 Vibration     2          0.594              1.983              5.758
 Vibration     3          0.603              1.953              3.563
 Vibration     4          0.605              1.947              3.402
 Vibration     5          0.609              1.932              3.083
 Vibration     6          0.646              1.815              1.986
 Vibration     7          0.657              1.780              1.806
 Vibration     8          0.666              1.752              1.685
 Vibration     9          0.699              1.654              1.360
 Vibration    10          0.704              1.641              1.325
 Vibration    11          0.734              1.556              1.125
 Vibration    12          0.793              1.401              0.852
 Vibration    13          0.796              1.393              0.841
 Vibration    14          0.865              1.227              0.633
 Vibration    15          0.879              1.196              0.600
 Vibration    16          0.925              1.098              0.506
 Vibration    17          0.940              1.068              0.479

 Optimization completed.
    -- Stationary point found.
 Normal termination of Gaussian 16 at Fri Nov 26 11:15:05 2021.
