 Gaussian 16, Revision A.03,
 Gaussian 16:  ES64L-G16RevA.03 25-Dec-2016

 -------------
 # g4 geom=gic
 -------------

 -------------------
 CAS 1345980-45-1
 -------------------
 Symbolic Z-matrix:
 Charge =  0 Multiplicity = 1

 SCF Done:  E(RB3LYP) =  -432.658398958     A.U. after   14 cycles
 SCF Done:  E(RB3LYP) =  -432.664296941     A.U. after   13 cycles
 SCF Done:  E(RB3LYP) =  -432.664310585     A.U. after   11 cycles
 SCF Done:  E(RB3LYP) =  -432.664047758     A.U. after   11 cycles
 SCF Done:  E(RB3LYP) =  -432.664295901     A.U. after   10 cycles
 SCF Done:  E(RB3LYP) =  -432.664322554     A.U. after    7 cycles
 SCF Done:  E(RB3LYP) =  -432.664333398     A.U. after   10 cycles
 SCF Done:  E(RB3LYP) =  -432.664334108     A.U. after    8 cycles
 Optimization completed.
    -- Stationary point found.
 Normal termination of Gaussian 16 at Fri Jun 17 20:36:10 2022.

 ----------------------------------------------------------
 #N Geom=AllCheck Guess=TCheck SCRF=Check B3LYP/GTBas3 Freq
 ----------------------------------------------------------

 Structure from the checkpoint file:  "/home/artemiy/opt/gaussian/scr/Gau-15226.chk"
 -------------------
 Title Card Required
 -------------------
 Charge =  0 Multiplicity = 1

 SCF Done:  E(RB3LYP) =  -432.664334108     A.U. after    3 cycles

  Exact polarizability:  95.600  -0.002  70.698   9.926   0.000  64.285
 Approx polarizability: 150.752  -0.013 118.718  27.653  -0.001 104.859

                      1                      2                      3
                      A                      A                      A
 Frequencies --     66.5856                96.7648               129.2702
 Red. masses --      4.8612                 6.9910                10.4249
 Frc consts  --      0.0127                 0.0386                 0.1026
 IR Inten    --      0.1411                 0.4359                 4.6638

                      4                      5                      6
                      A                      A                      A
 Frequencies --    129.3953               158.2632               212.7193
 Red. masses --     10.0897                 9.8776                 4.5874
 Frc consts  --      0.0995                 0.1458                 0.1223
 IR Inten    --      4.8772                15.6433                 2.2517

                      7                      8                      9
                      A                      A                      A
 Frequencies --    223.9121               335.3311               370.1699
 Red. masses --      7.1514                 3.1107                10.1398
 Frc consts  --      0.2113                 0.2061                 0.8186
 IR Inten    --      3.1141                 5.2250                 0.4524

                     10                     11                     12
                      A                      A                      A
 Frequencies --    427.4200               478.3533               496.9749
 Red. masses --      8.8635                 6.0447                10.4502
 Frc consts  --      0.9540                 0.8149                 1.5207
 IR Inten    --      6.3257                 0.5152                 1.1141

                     13                     14                     15
                      A                      A                      A
 Frequencies --    573.8746               579.1567               580.0874
 Red. masses --     12.6702                12.1919                12.0648
 Frc consts  --      2.4585                 2.4094                 2.3920
 IR Inten    --      0.1991                 0.1909                 0.1975

                     16                     17                     18
                      A                      A                      A
 Frequencies --    654.8528               688.5938               706.2802
 Red. masses --      1.2185                 2.4177                 1.7847
 Frc consts  --      0.3079                 0.6754                 0.5245
 IR Inten    --     38.5587                 2.4711                45.4853

                     19                     20                     21
                      A                      A                      A
 Frequencies --    903.4826               960.6923              1010.0887
 Red. masses --      2.0452                 6.3555                 5.2788
 Frc consts  --      0.9836                 3.4559                 3.1732
 IR Inten    --      2.3417                 2.4236                 3.5787

                     22                     23                     24
                      A                      A                      A
 Frequencies --   1093.2661              1096.5826              1273.8145
 Red. masses --      2.7410                 7.5792                 1.3146
 Frc consts  --      1.9302                 5.3698                 1.2567
 IR Inten    --     14.6215                20.2926                 8.4870

                     25                     26                     27
                      A                      A                      A
 Frequencies --   1342.7747              1464.9580              2251.7108
 Red. masses --      1.3910                 1.0889                 5.8608
 Frc consts  --      1.4777                 1.3768                17.5078
 IR Inten    --      9.0481                 5.1594                 8.3252

                     28                     29                     30
                      A                      A                      A
 Frequencies --   2373.9066              2375.4397              2382.1871
 Red. masses --     12.7030                12.7025                12.6841
 Frc consts  --     42.1779                42.2305                42.4092
 IR Inten    --      0.6377                 1.1707                 0.2797

                     31                     32                     33
                      A                      A                      A
 Frequencies --   3055.2808              3100.9530              3500.0303
 Red. masses --      1.0584                 1.1050                 1.1656
 Frc consts  --      5.8209                 6.2602                 8.4125
 IR Inten    --      3.3751                 0.1252                72.3945

 - Thermochemistry -
 -------------------
 Temperature   298.150 Kelvin.  Pressure   1.00000 Atm.
 Atom     1 has atomic number  6 and mass  12.00000

 Molecular mass:   129.03270 amu.
 Principal axes and moments of inertia in atomic units:
                           1         2         3
     Eigenvalues --  1049.279801665.575581816.92030
           X            0.99997   0.00002  -0.00803
           Y           -0.00002   1.00000  -0.00001
           Z            0.00803   0.00001   0.99997
 This molecule is an asymmetric top.
 Rotational symmetry number  1.
 Warning -- assumption of classical behavior for rotation
           may cause significant error
 Rotational temperatures (Kelvin)      0.08255     0.05200     0.04767
 Rotational constants (GHZ):           1.71998     1.08355     0.99330
 Zero-point vibrational energy     209903.8 (Joules/Mol)
                                   50.16821 (Kcal/Mol)
 Warning -- explicit consideration of  15 degrees of freedom as
           vibrations may cause significant error
 Vibrational temperatures:     95.80   139.22   185.99   186.17   227.71
          (Kelvin)            306.06   322.16   482.47   532.59   614.96
                              688.24   715.04   825.68   833.28   834.62
                              942.19   990.73  1016.18  1299.91  1382.22
                             1453.29  1572.97  1577.74  1832.73  1931.95
                             2107.75  3239.71  3415.52  3417.73  3427.44
                             4395.87  4461.58  5035.76

 Zero-point correction=                           0.079948 (Hartree/Particle)
 Thermal correction to Energy=                    0.089933
 Thermal correction to Enthalpy=                  0.090877
 Thermal correction to Gibbs Free Energy=         0.044426
 Sum of electronic and zero-point Energies=           -432.584386
 Sum of electronic and thermal Energies=              -432.574402
 Sum of electronic and thermal Enthalpies=            -432.573457
 Sum of electronic and thermal Free Energies=         -432.619909

                     E (Thermal)             CV                S
                      KCal/Mol        Cal/Mol-Kelvin    Cal/Mol-Kelvin
 Total                   56.434             34.419             97.765
 Electronic               0.000              0.000              0.000
 Translational            0.889              2.981             40.478
 Rotational               0.889              2.981             29.542
 Vibrational             54.656             28.458             27.745
 Vibration     1          0.598              1.970              4.252
 Vibration     2          0.603              1.951              3.518
 Vibration     3          0.612              1.924              2.957
 Vibration     4          0.612              1.924              2.955
 Vibration     5          0.621              1.893              2.570
 Vibration     6          0.644              1.822              2.020
 Vibration     7          0.649              1.805              1.927
 Vibration     8          0.716              1.605              1.234
 Vibration     9          0.742              1.533              1.079
 Vibration    10          0.789              1.411              0.867
 Vibration    11          0.835              1.298              0.715
 Vibration    12          0.852              1.257              0.666
 Vibration    13          0.930              1.088              0.497
 Vibration    14          0.936              1.076              0.487
 Vibration    15          0.937              1.074              0.485

 Optimization completed.
    -- Stationary point found.
 Normal termination of Gaussian 16 at Fri Jun 17 20:43:16 2022.

 -----------------------------------------------------------------
 #N Geom=AllCheck Guess=TCheck SCRF=Check CCSD(T,E4T,FrzG4)/GTBas1
 -----------------------------------------------------------------

 Structure from the checkpoint file:  "/home/artemiy/opt/gaussian/scr/Gau-15226.chk"
 -------------------
 Title Card Required
 -------------------
 Charge =  0 Multiplicity = 1

 SCF Done:  E(RHF) =  -430.044328767     A.U. after   14 cycles
 E2 =    -0.1350276092D+01 EUMP2 =    -0.43139460485940D+03
 CCSD(T)= -0.43148364886D+03
 8\CCSD=-431.4204972\CCSD(T)=-431.4836489\RMSD=4.478e-09\PG=C01 [X(C7H3
 Normal termination of Gaussian 16 at Fri Jun 17 21:02:30 2022.

 ---------------------------------------------------------
 #N Geom=AllCheck Guess=TCheck SCRF=Check MP4=FrzG4/GTBas2
 ---------------------------------------------------------

 Structure from the checkpoint file:  "/home/artemiy/opt/gaussian/scr/Gau-15226.chk"
 -------------------
 Title Card Required
 -------------------
 Charge =  0 Multiplicity = 1

 SCF Done:  E(RHF) =  -430.055432388     A.U. after   16 cycles
 E2 =    -0.1364177577D+01 EUMP2 =    -0.43141960996454D+03
 Normal termination of Gaussian 16 at Fri Jun 17 21:13:08 2022.

 ---------------------------------------------------------
 #N Geom=AllCheck Guess=TCheck SCRF=Check MP4=FrzG4/GTBas3
 ---------------------------------------------------------

 Structure from the checkpoint file:  "/home/artemiy/opt/gaussian/scr/Gau-15226.chk"
 -------------------
 Title Card Required
 -------------------
 Charge =  0 Multiplicity = 1

 SCF Done:  E(RHF) =  -430.082707711     A.U. after   12 cycles
 E2 =    -0.1568472841D+01 EUMP2 =    -0.43165118055190D+03
 Normal termination of Gaussian 16 at Fri Jun 17 22:10:23 2022.

 -----------------------------------------------------------
 #N Geom=AllCheck Guess=TCheck SCRF=Check MP2=Full/GTLargeXP
 -----------------------------------------------------------

 Structure from the checkpoint file:  "/home/artemiy/opt/gaussian/scr/Gau-15226.chk"
 -------------------
 Title Card Required
 -------------------
 Charge =  0 Multiplicity = 1

 SCF Done:  E(RHF) =  -430.180283353     A.U. after   14 cycles
 E2 =    -0.2082037863D+01 EUMP2 =    -0.43226232121621D+03
 Normal termination of Gaussian 16 at Fri Jun 17 22:28:28 2022.
 SCF Done:  E(RHF) =  -430.211275663     A.U. after    9 cycles
 Normal termination of Gaussian 16 at Fri Jun 17 22:38:21 2022.

                         Standard orientation:
 ---------------------------------------------------------------------
 Center     Atomic      Atomic             Coordinates (Angstroms)
 Number     Number       Type             X           Y           Z
 ---------------------------------------------------------------------
      1          6           0       -0.454514   -0.000066   -0.027874
      2          6           0        0.559704    0.000121   -1.242753
      3          1           0        0.331493   -0.883365   -1.847169
      4          1           0        0.331401    0.883704   -1.846995
      5          6           0        1.941991    0.000156   -0.804643
      6          6           0       -1.829880   -0.000256   -0.567611
      7          6           0       -0.254043   -1.208274    0.797596
      8          6           0       -0.254353    1.208115    0.797722
      9          6           0        3.079679    0.000208   -0.422765
     10          1           0        4.089220    0.000722   -0.090123
     11          7           0       -0.092747    2.166788    1.418491
     12          7           0       -2.884264   -0.000000   -1.035876
     13          7           0       -0.092078   -2.166943    1.418278
 ---------------------------------------------------------------------

 SCF Done:  E(RHF) =  -430.216736879     A.U. after    7 cycles

 The electronic state is 1-A.
 Alpha  occ. eigenvalues --  -15.63050 -15.62576 -15.62576 -11.42814 -11.34080
 Alpha  occ. eigenvalues --  -11.33165 -11.32729 -11.32729 -11.27507 -11.26984
 Alpha  occ. eigenvalues --   -1.29733  -1.26749  -1.26451  -1.19137  -1.08959
 Alpha  occ. eigenvalues --   -1.00018  -0.84582  -0.84264  -0.76438  -0.70266
 Alpha  occ. eigenvalues --   -0.67599  -0.65795  -0.61518  -0.60777  -0.60498
 Alpha  occ. eigenvalues --   -0.53906  -0.53847  -0.51620  -0.51275  -0.50841
 Alpha  occ. eigenvalues --   -0.50653  -0.43560  -0.43268
 Alpha virt. eigenvalues --    0.02225   0.03161   0.03820   0.03953   0.05361
 Alpha virt. eigenvalues --    0.05790   0.06327   0.06366   0.06635   0.07704
 Alpha virt. eigenvalues --    0.07980   0.08338   0.09021   0.09100   0.09262

 Mulliken charges:
               1
     1  C    0.609832
     2  C   -0.318083
     3  H    0.242483
     4  H    0.242478
     5  C    0.070562
     6  C    0.120085
     7  C    0.145212
     8  C    0.145210
     9  C   -0.435358
    10  H    0.268395
    11  N   -0.360987
    12  N   -0.368845
    13  N   -0.360985
 Sum of Mulliken charges =  -0.00000

 Dipole moment (field-independent basis, Debye):
    X=              2.9313    Y=              0.0006    Z=             -2.8557  Tot=              4.0924
 Quadrupole moment (field-independent basis, Debye-Ang):
   XX=            -58.4994   YY=            -68.9364   ZZ=            -60.6141
   XY=              0.0050   XZ=             -2.7513   YZ=             -0.0004

 Normal termination of Gaussian 16 at Sat Jun 18 00:04:53 2022.
