 Gaussian 16, Revision A.03,
 Gaussian 16:  ES64L-G16RevA.03 25-Dec-2016

 -------------
 # g4 geom=gic
 -------------

 -------------------
 CAS 10359-20-3
 -------------------
 Symbolic Z-matrix:
 Charge =  0 Multiplicity = 1

 SCF Done:  E(RB3LYP) =  -356.521976466     A.U. after   13 cycles
 SCF Done:  E(RB3LYP) =  -356.526857817     A.U. after   11 cycles
 SCF Done:  E(RB3LYP) =  -356.526865616     A.U. after    7 cycles
 SCF Done:  E(RB3LYP) =  -356.526867313     A.U. after    8 cycles
 Optimization completed.
    -- Stationary point found.
 Normal termination of Gaussian 16 at Thu Jun 16 18:17:52 2022.

 ----------------------------------------------------------
 #N Geom=AllCheck Guess=TCheck SCRF=Check B3LYP/GTBas3 Freq
 ----------------------------------------------------------

 Structure from the checkpoint file:  "/home/artemiy/opt/gaussian/scr/Gau-19926.chk"
 -------------------
 Title Card Required
 -------------------
 Charge =  0 Multiplicity = 1

 SCF Done:  E(RB3LYP) =  -356.526867313     A.U. after    1 cycles

  Exact polarizability:  64.182   0.000  64.181   0.000  -0.000  50.412
 Approx polarizability: 106.285   0.000 106.285  -0.000  -0.000  74.133

                      1                      2                      3
                      A                      A                      A
 Frequencies --    129.0222               129.0339               162.2097
 Red. masses --     10.6009                10.5994                 9.6867
 Frc consts  --      0.1040                 0.1040                 0.1502
 IR Inten    --      5.6125                 5.6120                20.0425

                      4                      5                      6
                      A                      A                      A
 Frequencies --    222.6422               222.6623               244.2916
 Red. masses --      4.1848                 4.1850                 1.0452
 Frc consts  --      0.1222                 0.1222                 0.0367
 IR Inten    --      1.0335                 1.0331                 0.0000

                      7                      8                      9
                      A                      A                      A
 Frequencies --    372.6447               489.5703               489.5774
 Red. masses --      9.3075                 6.5677                 6.5679
 Frc consts  --      0.7615                 0.9275                 0.9275
 IR Inten    --      0.0000                 0.7599                 0.7600

                     10                     11                     12
                      A                      A                      A
 Frequencies --    574.2170               582.5537               582.5611
 Red. masses --     12.6890                12.0008                12.0008
 Frc consts  --      2.4651                 2.3996                 2.3996
 IR Inten    --      0.4009                 0.0886                 0.0886

                     13                     14                     15
                      A                      A                      A
 Frequencies --    650.5183               947.6851               947.7089
 Red. masses --      5.8548                 2.0688                 2.0691
 Frc consts  --      1.4598                 1.0947                 1.0949
 IR Inten    --      2.9867                 2.3800                 2.3821

                     16                     17                     18
                      A                      A                      A
 Frequencies --   1035.5808              1191.4945              1191.4998
 Red. masses --      9.8909                 2.6675                 2.6668
 Frc consts  --      6.2496                 2.2312                 2.2306
 IR Inten    --      0.6672                28.8885                28.8876

                     19                     20                     21
                      A                      A                      A
 Frequencies --   1411.0934              1484.8236              1484.8650
 Red. masses --      1.1714                 1.0473                 1.0473
 Frc consts  --      1.3743                 1.3604                 1.3605
 IR Inten    --      0.9119                 4.6603                 4.6592

                     22                     23                     24
                      A                      A                      A
 Frequencies --   2374.0276              2374.0343              2381.9306
 Red. masses --     12.7019                12.7019                12.6816
 Frc consts  --     42.1783                42.1785                42.3920
 IR Inten    --      0.4837                 0.4834                 0.0687

                     25                     26                     27
                      A                      A                      A
 Frequencies --   3069.4313              3165.2862              3165.3015
 Red. masses --      1.0315                 1.1057                 1.1057
 Frc consts  --      5.7260                 6.5269                 6.5270
 IR Inten    --      1.6887                 1.2976                 1.2979

 - Thermochemistry -
 -------------------
 Temperature   298.150 Kelvin.  Pressure   1.00000 Atm.
 Atom     1 has atomic number  6 and mass  12.00000

 Molecular mass:   105.03270 amu.
 Principal axes and moments of inertia in atomic units:
                           1         2         3
     Eigenvalues --   850.86634 850.871731192.72391
           X            1.00000  -0.00279  -0.00000
           Y            0.00279   1.00000   0.00001
           Z            0.00000  -0.00001   1.00000
 This molecule is an asymmetric top.
 Rotational symmetry number  1.
 Warning -- assumption of classical behavior for rotation
           may cause significant error
 Rotational temperatures (Kelvin)      0.10179     0.10179     0.07262
 Rotational constants (GHZ):           2.12106     2.12105     1.51313
 Zero-point vibrational energy     185877.4 (Joules/Mol)
                                   44.42575 (Kcal/Mol)
 Warning -- explicit consideration of  12 degrees of freedom as
           vibrations may cause significant error
 Vibrational temperatures:    185.63   185.65   233.38   320.33   320.36
          (Kelvin)            351.48   536.15   704.38   704.39   826.17
                              838.16   838.18   935.95  1363.51  1363.54
                             1489.97  1714.29  1714.30  2030.25  2136.33
                             2136.39  3415.70  3415.71  3427.07  4416.23
                             4554.14  4554.16

 Zero-point correction=                           0.070797 (Hartree/Particle)
 Thermal correction to Energy=                    0.078784
 Thermal correction to Enthalpy=                  0.079728
 Thermal correction to Gibbs Free Energy=         0.038434
 Sum of electronic and zero-point Energies=           -356.456070
 Sum of electronic and thermal Energies=              -356.448084
 Sum of electronic and thermal Enthalpies=            -356.447139
 Sum of electronic and thermal Free Energies=         -356.488433

                     E (Thermal)             CV                S
                      KCal/Mol        Cal/Mol-Kelvin    Cal/Mol-Kelvin
 Total                   49.438             27.216             86.910
 Electronic               0.000              0.000              0.000
 Translational            0.889              2.981             39.864
 Rotational               0.889              2.981             28.248
 Vibrational             47.660             21.255             18.798
 Vibration     1          0.612              1.924              2.961
 Vibration     2          0.612              1.924              2.960
 Vibration     3          0.622              1.889              2.524
 Vibration     4          0.648              1.807              1.937
 Vibration     5          0.648              1.807              1.937
 Vibration     6          0.660              1.772              1.771
 Vibration     7          0.744              1.528              1.069
 Vibration     8          0.845              1.273              0.685
 Vibration     9          0.845              1.273              0.685
 Vibration    10          0.931              1.087              0.496
 Vibration    11          0.939              1.069              0.481
 Vibration    12          0.939              1.069              0.481

 Optimization completed.
    -- Stationary point found.
 Normal termination of Gaussian 16 at Thu Jun 16 18:21:44 2022.

 -----------------------------------------------------------------
 #N Geom=AllCheck Guess=TCheck SCRF=Check CCSD(T,E4T,FrzG4)/GTBas1
 -----------------------------------------------------------------

 Structure from the checkpoint file:  "/home/artemiy/opt/gaussian/scr/Gau-19926.chk"
 -------------------
 Title Card Required
 -------------------
 Charge =  0 Multiplicity = 1

 SCF Done:  E(RHF) =  -354.382163700     A.U. after   13 cycles
 E2 =    -0.1104078895D+01 EUMP2 =    -0.35548624259447D+03
 CCSD(T)= -0.35555839287D+03
 Normal termination of Gaussian 16 at Thu Jun 16 18:25:19 2022.

 ---------------------------------------------------------
 #N Geom=AllCheck Guess=TCheck SCRF=Check MP4=FrzG4/GTBas2
 ---------------------------------------------------------

 Structure from the checkpoint file:  "/home/artemiy/opt/gaussian/scr/Gau-19926.chk"
 -------------------
 Title Card Required
 -------------------
 Charge =  0 Multiplicity = 1

 SCF Done:  E(RHF) =  -354.390044373     A.U. after   12 cycles
 E2 =    -0.1115135695D+01 EUMP2 =    -0.35550518006762D+03
 Normal termination of Gaussian 16 at Thu Jun 16 18:27:40 2022.

 ---------------------------------------------------------
 #N Geom=AllCheck Guess=TCheck SCRF=Check MP4=FrzG4/GTBas3
 ---------------------------------------------------------

 Structure from the checkpoint file:  "/home/artemiy/opt/gaussian/scr/Gau-19926.chk"
 -------------------
 Title Card Required
 -------------------
 Charge =  0 Multiplicity = 1

 SCF Done:  E(RHF) =  -354.412982202     A.U. after   11 cycles
 E2 =    -0.1285406509D+01 EUMP2 =    -0.35569838871087D+03
 Normal termination of Gaussian 16 at Thu Jun 16 18:44:39 2022.

 -----------------------------------------------------------
 #N Geom=AllCheck Guess=TCheck SCRF=Check MP2=Full/GTLargeXP
 -----------------------------------------------------------

 Structure from the checkpoint file:  "/home/artemiy/opt/gaussian/scr/Gau-19926.chk"
 -------------------
 Title Card Required
 -------------------
 Charge =  0 Multiplicity = 1

 SCF Done:  E(RHF) =  -354.494257250     A.U. after   12 cycles
 E2 =    -0.1700598776D+01 EUMP2 =    -0.35619485602616D+03
 Normal termination of Gaussian 16 at Thu Jun 16 18:51:11 2022.
 SCF Done:  E(RHF) =  -354.519745876     A.U. after    8 cycles
 Normal termination of Gaussian 16 at Thu Jun 16 18:55:37 2022.

                         Standard orientation:
 ---------------------------------------------------------------------
 Center     Atomic      Atomic             Coordinates (Angstroms)
 Number     Number       Type             X           Y           Z
 ---------------------------------------------------------------------
      1          6           0       -0.000004    0.000000    0.213949
      2          6           0       -0.000012   -0.000001    1.774447
      3          1           0       -0.244401   -1.000811    2.132831
      4          1           0        0.988909    0.288752    2.132830
      5          1           0       -0.744540    0.712054    2.132832
      6          6           0        0.330252    1.352624   -0.283092
      7          6           0        1.006284   -0.962319   -0.283076
      8          6           0       -1.336534   -0.390304   -0.283097
      9          7           0        0.591561    2.421334   -0.630169
     10          7           0        1.801175   -1.722966   -0.630138
     11          7           0       -2.392720   -0.698368   -0.630161
 ---------------------------------------------------------------------

 SCF Done:  E(RHF) =  -354.524332896     A.U. after    7 cycles

 The electronic state is 1-A.
 Alpha  occ. eigenvalues --  -15.62670 -15.62670 -15.62670 -11.42343 -11.32842
 Alpha  occ. eigenvalues --  -11.32842 -11.32841 -11.30802  -1.29532  -1.26596
 Alpha  occ. eigenvalues --   -1.26596  -1.17966  -0.99719  -0.83863  -0.83863
 Alpha  occ. eigenvalues --   -0.68146  -0.63224  -0.63224  -0.61381  -0.60251
 Alpha  occ. eigenvalues --   -0.60251  -0.53770  -0.53770  -0.51274  -0.51274
 Alpha  occ. eigenvalues --   -0.50660  -0.50512
 Alpha virt. eigenvalues --    0.02053   0.03835   0.03835   0.03864   0.05976
 Alpha virt. eigenvalues --    0.06624   0.06624   0.07287   0.07287   0.07806
 Alpha virt. eigenvalues --    0.09366   0.09366   0.09368   0.09866   0.10480

 Mulliken charges:
               1
     1  C    0.533585
     2  C   -0.585891
     3  H    0.225835
     4  H    0.225835
     5  H    0.225835
     6  C    0.150866
     7  C    0.150866
     8  C    0.150867
     9  N   -0.359265
    10  N   -0.359265
    11  N   -0.359267
 Sum of Mulliken charges =  -0.00000

 Dipole moment (field-independent basis, Debye):
    X=             -0.0000    Y=              0.0000    Z=              4.0478  Tot=              4.0478
 Quadrupole moment (field-independent basis, Debye-Ang):
   XX=            -57.5170   YY=            -57.5169   ZZ=            -42.7944
   XY=             -0.0000   XZ=             -0.0001   YZ=              0.0001

 Normal termination of Gaussian 16 at Thu Jun 16 19:40:12 2022.
