 Gaussian 16, Revision A.03,
 Gaussian 16:  ES64L-G16RevA.03 25-Dec-2016

 -------------
 # g4 geom=gic
 -------------

 -------------------
 CAS 1522-22-1
 -------------------
 Symbolic Z-matrix:
 Charge =  0 Multiplicity = 1

 SCF Done:  E(RB3LYP) =  -941.274133295     A.U. after   14 cycles
 SCF Done:  E(RB3LYP) =  -941.274132100     A.U. after    9 cycles
 SCF Done:  E(RB3LYP) =  -941.274135518     A.U. after    9 cycles
 SCF Done:  E(RB3LYP) =  -941.274138472     A.U. after    8 cycles
 SCF Done:  E(RB3LYP) =  -941.274142291     A.U. after   10 cycles
 SCF Done:  E(RB3LYP) =  -941.274145438     A.U. after    9 cycles
 SCF Done:  E(RB3LYP) =  -941.274167201     A.U. after   12 cycles
 SCF Done:  E(RB3LYP) =  -941.274183716     A.U. after    8 cycles
 SCF Done:  E(RB3LYP) =  -941.274164574     A.U. after   11 cycles
 SCF Done:  E(RB3LYP) =  -941.245350959     A.U. after   14 cycles
 SCF Done:  E(RB3LYP) =  -941.274309665     A.U. after    7 cycles
 SCF Done:  E(RB3LYP) =  -941.274309680     A.U. after    7 cycles
 SCF Done:  E(RB3LYP) =  -941.274309683     A.U. after    6 cycles
 Optimization completed.
    -- Stationary point found.
 Normal termination of Gaussian 16 at Thu Dec  2 14:38:47 2021.

 ----------------------------------------------------------
 #N Geom=AllCheck Guess=TCheck SCRF=Check B3LYP/GTBas3 Freq
 ----------------------------------------------------------

 Structure from the checkpoint file:  "/home/artemiy/opt/gaussian/scr/Gau-1831.chk"
 -------------------
 Title Card Required
 -------------------
 Charge =  0 Multiplicity = 1

 SCF Done:  E(RB3LYP) =  -941.274309683     A.U. after    1 cycles

  Exact polarizability:  91.651   1.168  63.291   0.214   0.119  43.886
 Approx polarizability: 130.440   3.147 107.127   0.633   0.373  69.091

                      1                      2                      3
                      A                      A                      A
 Frequencies --      6.8920                30.0748               101.1335
 Red. masses --     17.0169                16.8655                 7.8686
 Frc consts  --      0.0005                 0.0090                 0.0474
 IR Inten    --      0.0416                 0.0509                 1.2809

                      4                      5                      6
                      A                      A                      A
 Frequencies --    108.8555               118.5970               226.3707
 Red. masses --     14.1162                12.0492                13.9643
 Frc consts  --      0.0986                 0.0999                 0.4216
 IR Inten    --      1.2245                 1.8673                 1.2632

                      7                      8                      9
                      A                      A                      A
 Frequencies --    237.5362               263.8464               308.7108
 Red. masses --     12.6728                16.4393                10.7389
 Frc consts  --      0.4213                 0.6743                 0.6030
 IR Inten    --      2.3710                 0.5890                 0.0669

                     10                     11                     12
                      A                      A                      A
 Frequencies --    320.4266               354.3105               433.8763
 Red. masses --      8.7241                13.4427                11.5993
 Frc consts  --      0.5277                 0.9943                 1.2865
 IR Inten    --      4.0484                 0.9593                 0.1291

                     13                     14                     15
                      A                      A                      A
 Frequencies --    441.4889               513.1979               526.1200
 Red. masses --     12.9840                17.1559                15.0490
 Frc consts  --      1.4911                 2.6622                 2.4543
 IR Inten    --      1.0932                 0.2255                 4.0060

                     16                     17                     18
                      A                      A                      A
 Frequencies --    576.4867               588.4839               666.3046
 Red. masses --     15.6287                13.9666                11.3794
 Frc consts  --      3.0602                 2.8498                 2.9766
 IR Inten    --      3.8759                17.4690                67.4956

                     19                     20                     21
                      A                      A                      A
 Frequencies --    736.7702               746.4521               781.7888
 Red. masses --      9.5264                14.9446                 2.7842
 Frc consts  --      3.0468                 4.9061                 1.0026
 IR Inten    --      1.0165                 8.6977                 1.3609

                     22                     23                     24
                      A                      A                      A
 Frequencies --    826.6016               847.6136               931.7880
 Red. masses --     12.6644                 1.5798                 1.1376
 Frc consts  --      5.0983                 0.6687                 0.5819
 IR Inten    --      4.6345                42.8732                63.7095

                     25                     26                     27
                      A                      A                      A
 Frequencies --    937.9049              1112.9406              1134.4401
 Red. masses --      6.1011                 3.2579                 2.8197
 Frc consts  --      3.1621                 2.3776                 2.1380
 IR Inten    --     10.3609               160.8632                38.3886

                     28                     29                     30
                      A                      A                      A
 Frequencies --   1203.9709              1211.1991              1234.1139
 Red. masses --     12.9715                12.7500                11.4578
 Frc consts  --     11.0783                11.0203                10.2816
 IR Inten    --    271.0176               206.6944                94.5693

                     31                     32                     33
                      A                      A                      A
 Frequencies --   1237.8781              1270.9140              1341.0088
 Red. masses --     11.1579                 3.7946                 3.9344
 Frc consts  --     10.0737                 3.6111                 4.1687
 IR Inten    --    449.6973               498.9983                21.5479

                     34                     35                     36
                      A                      A                      A
 Frequencies --   1419.3992              1482.7765              1660.3762
 Red. masses --      2.5042                 4.1412                 3.0553
 Frc consts  --      2.9725                 5.3645                 4.9628
 IR Inten    --    120.6295                72.4379               261.0817

                     37                     38                     39
                      A                      A                      A
 Frequencies --   1718.8660              3103.9445              3276.1853
 Red. masses --     10.5371                 1.0711                 1.0917
 Frc consts  --     18.3423                 6.0801                 6.9039
 IR Inten    --    112.7727               238.9546                 5.3081

 - Thermochemistry -
 -------------------
 Temperature   298.150 Kelvin.  Pressure   1.00000 Atm.
 Atom     1 has atomic number  6 and mass  12.00000

 Molecular mass:   207.99590 amu.
 Principal axes and moments of inertia in atomic units:
                           1         2         3
     Eigenvalues --  1054.888394824.167885244.09611
           X            1.00000   0.00073   0.00005
           Y           -0.00073   1.00000   0.00050
           Z           -0.00005  -0.00050   1.00000
 This molecule is an asymmetric top.
 Rotational symmetry number  1.
 Warning -- assumption of classical behavior for rotation
           may cause significant error
 Rotational temperatures (Kelvin)      0.08211     0.01795     0.01652
 Rotational constants (GHZ):           1.71084     0.37410     0.34415
 Zero-point vibrational energy     203602.3 (Joules/Mol)
                                   48.66212 (Kcal/Mol)
 Warning -- explicit consideration of  17 degrees of freedom as
           vibrations may cause significant error
 Vibrational temperatures:      9.92    43.27   145.51   156.62   170.63
          (Kelvin)            325.70   341.76   379.62   444.17   461.02
                              509.77   624.25   635.20   738.38   756.97
                              829.44   846.70   958.66  1060.05  1073.98
                             1124.82  1189.30  1219.53  1340.64  1349.44
                             1601.27  1632.21  1732.25  1742.65  1775.61
                             1781.03  1828.56  1929.41  2042.20  2133.38
                             2388.91  2473.06  4465.88  4713.70

 Zero-point correction=                           0.077548 (Hartree/Particle)
 Thermal correction to Energy=                    0.089080
 Thermal correction to Enthalpy=                  0.090024
 Thermal correction to Gibbs Free Energy=         0.036301
 Sum of electronic and zero-point Energies=           -941.196762
 Sum of electronic and thermal Energies=              -941.185229
 Sum of electronic and thermal Enthalpies=            -941.184285
 Sum of electronic and thermal Free Energies=         -941.238009

                     E (Thermal)             CV                S
                      KCal/Mol        Cal/Mol-Kelvin    Cal/Mol-Kelvin
 Total                   55.899             40.270            113.071
 Electronic               0.000              0.000              0.000
 Translational            0.889              2.981             41.901
 Rotational               0.889              2.981             31.657
 Vibrational             54.121             34.308             39.513
 Vibration     1          0.593              1.987              8.751
 Vibration     2          0.594              1.984              5.824
 Vibration     3          0.604              1.948              3.432
 Vibration     4          0.606              1.942              3.289
 Vibration     5          0.609              1.934              3.123
 Vibration     6          0.650              1.801              1.908
 Vibration     7          0.656              1.783              1.821
 Vibration     8          0.670              1.739              1.636
 Vibration     9          0.698              1.657              1.369
 Vibration    10          0.706              1.634              1.308
 Vibration    11          0.730              1.566              1.147
 Vibration    12          0.795              1.396              0.846
 Vibration    13          0.801              1.380              0.822
 Vibration    14          0.868              1.221              0.626
 Vibration    15          0.881              1.192              0.596
 Vibration    16          0.933              1.082              0.492
 Vibration    17          0.946              1.056              0.470

 Optimization completed.
    -- Stationary point found.
 Normal termination of Gaussian 16 at Thu Dec  2 14:50:44 2021.

 -----------------------------------------------------------------
 #N Geom=AllCheck Guess=TCheck SCRF=Check CCSD(T,E4T,FrzG4)/GTBas1
 -----------------------------------------------------------------

 Structure from the checkpoint file:  "/home/artemiy/opt/gaussian/scr/Gau-1831.chk"
 -------------------
 Title Card Required
 -------------------
 Charge =  0 Multiplicity = 1

 SCF Done:  E(RHF) =  -936.854566547     A.U. after   14 cycles
 E2 =    -0.2005902403D+01 EUMP2 =    -0.93886046895066D+03
 CCSD(T)= -0.93894506462D+03
 Q=-938.8937418\CCSD=-938.8839533\CCSD(T)=-938.9450646\RMSD=3.364e-09\P
 Normal termination of Gaussian 16 at Thu Dec  2 15:59:40 2021.

 ---------------------------------------------------------
 #N Geom=AllCheck Guess=TCheck SCRF=Check MP4=FrzG4/GTBas2
 ---------------------------------------------------------

 Structure from the checkpoint file:  "/home/artemiy/opt/gaussian/scr/Gau-1831.chk"
 -------------------
 Title Card Required
 -------------------
 Charge =  0 Multiplicity = 1

 SCF Done:  E(RHF) =  -936.883609561     A.U. after   13 cycles
 E2 =    -0.2043783019D+01 EUMP2 =    -0.93892739257944D+03
 Normal termination of Gaussian 16 at Thu Dec  2 17:06:39 2021.

 ---------------------------------------------------------
 #N Geom=AllCheck Guess=TCheck SCRF=Check MP4=FrzG4/GTBas3
 ---------------------------------------------------------

 Structure from the checkpoint file:  "/home/artemiy/opt/gaussian/scr/Gau-1831.chk"
 -------------------
 Title Card Required
 -------------------
 Charge =  0 Multiplicity = 1

 SCF Done:  E(RHF) =  -936.917629236     A.U. after   12 cycles
 E2 =    -0.2523568952D+01 EUMP2 =    -0.93944119818820D+03
 Normal termination of Gaussian 16 at Thu Dec  2 22:28:37 2021.

 -----------------------------------------------------------
 #N Geom=AllCheck Guess=TCheck SCRF=Check MP2=Full/GTLargeXP
 -----------------------------------------------------------

 Structure from the checkpoint file:  "/home/artemiy/opt/gaussian/scr/Gau-1831.chk"
 -------------------
 Title Card Required
 -------------------
 Charge =  0 Multiplicity = 1

 SCF Done:  E(RHF) =  -937.201398651     A.U. after   13 cycles
 E2 =    -0.3356833698D+01 EUMP2 =    -0.94055823234914D+03
 Normal termination of Gaussian 16 at Thu Dec  2 22:54:17 2021.
 SCF Done:  E(RHF) =  -937.286289889     A.U. after    9 cycles
 Normal termination of Gaussian 16 at Thu Dec  2 23:12:15 2021.

                         Standard orientation:
 ---------------------------------------------------------------------
 Center     Atomic      Atomic             Coordinates (Angstroms)
 Number     Number       Type             X           Y           Z
 ---------------------------------------------------------------------
      1          6           0        2.537700   -0.306250    0.001084
      2          9           0        3.222699    0.030649    1.095029
      3          9           0        3.249989    0.057126   -1.066692
      4          9           0        2.394819   -1.632478   -0.017054
      5          6           0        1.183858    0.392097   -0.007320
      6          6           0        0.004843   -0.291222   -0.032569
      7          6           0       -1.212044    0.471240   -0.030132
      8          8           0       -1.257941    1.703141   -0.021321
      9          6           0       -2.560416   -0.286919   -0.002510
     10          9           0       -2.410509   -1.571862   -0.346770
     11          9           0       -3.067642   -0.245243    1.233512
     12          9           0       -3.428472    0.275894   -0.835834
     13          1           0       -0.007840   -1.368404   -0.050122
     14          8           0        1.292889    1.698585    0.010881
     15          1           0        0.356646    2.054155    0.002608
 ---------------------------------------------------------------------

 SCF Done:  E(RHF) =  -937.304056370     A.U. after    7 cycles

 The electronic state is 1-A.
 Alpha  occ. eigenvalues --  -26.36875 -26.36622 -26.36452 -26.36450 -26.36262
 Alpha  occ. eigenvalues --  -26.36110 -20.64337 -20.60762 -11.54689 -11.53928
 Alpha  occ. eigenvalues --  -11.40340 -11.40037 -11.27850  -1.76309  -1.75942
 Alpha  occ. eigenvalues --   -1.66840  -1.66479  -1.66462  -1.66213  -1.48760
 Alpha  occ. eigenvalues --   -1.44142  -1.13619  -1.06071  -1.01897  -0.93360
 Alpha  occ. eigenvalues --   -0.90487  -0.85938  -0.85585  -0.85257  -0.85225
 Alpha  occ. eigenvalues --   -0.81684  -0.79450  -0.74926  -0.74222  -0.74179
 Alpha  occ. eigenvalues --   -0.73802  -0.72759  -0.70598  -0.69668  -0.69489
 Alpha  occ. eigenvalues --   -0.69334  -0.68855  -0.67899  -0.67637  -0.64700
 Alpha  occ. eigenvalues --   -0.64521  -0.63159  -0.59854  -0.58561  -0.48773
 Alpha  occ. eigenvalues --   -0.41149
 Alpha virt. eigenvalues --    0.02247   0.03741   0.04204   0.04514   0.04780
 Alpha virt. eigenvalues --    0.05718   0.06249   0.06524   0.07322   0.07698
 Alpha virt. eigenvalues --    0.08183   0.08507   0.09617   0.10438   0.10683

 Mulliken charges:
               1
     1  C    0.725110
     2  F   -0.262311
     3  F   -0.262144
     4  F   -0.289523
     5  C    0.422280
     6  C   -0.341754
     7  C    0.517995
     8  O   -0.561531
     9  C    0.704917
    10  F   -0.285628
    11  F   -0.267694
    12  F   -0.256129
    13  H    0.256247
    14  O   -0.553145
    15  H    0.453309
 Sum of Mulliken charges =  -0.00000

 Dipole moment (field-independent basis, Debye):
    X=              0.3018    Y=             -1.1060    Z=             -0.1069  Tot=              1.1514
 Quadrupole moment (field-independent basis, Debye-Ang):
   XX=            -79.7549   YY=            -72.6787   ZZ=            -70.4498
   XY=              0.9187   XZ=              0.1226   YZ=              0.0251

 Normal termination of Gaussian 16 at Fri Dec  3 01:33:35 2021.
