 Gaussian 16, Revision A.03,
 Gaussian 16:  ES64L-G16RevA.03 25-Dec-2016

 -------------
 # g4 geom=gic
 -------------

 -------------------
 CAS 367-57-7
 -------------------
 Symbolic Z-matrix:
 Charge =  0 Multiplicity = 1

 SCF Done:  E(RB3LYP) =  -643.552770857     A.U. after   14 cycles
 SCF Done:  E(RB3LYP) =  -643.553792221     A.U. after   12 cycles
 SCF Done:  E(RB3LYP) =  -643.554233714     A.U. after   11 cycles
 SCF Done:  E(RB3LYP) =  -643.554455829     A.U. after   11 cycles
 SCF Done:  E(RB3LYP) =  -643.554572628     A.U. after   10 cycles
 SCF Done:  E(RB3LYP) =  -643.554833517     A.U. after   11 cycles
 SCF Done:  E(RB3LYP) =  -643.554902156     A.U. after   11 cycles
 SCF Done:  E(RB3LYP) =  -643.554958781     A.U. after   10 cycles
 SCF Done:  E(RB3LYP) =  -643.555011487     A.U. after   11 cycles
 SCF Done:  E(RB3LYP) =  -643.555017544     A.U. after    8 cycles
 SCF Done:  E(RB3LYP) =  -643.555529187     A.U. after    7 cycles
 SCF Done:  E(RB3LYP) =  -643.555530625     A.U. after   10 cycles
 SCF Done:  E(RB3LYP) =  -643.555530717     A.U. after    8 cycles
 Optimization completed.
    -- Stationary point found.
 Normal termination of Gaussian 16 at Sat Nov 13 09:34:22 2021.

 ----------------------------------------------------------
 #N Geom=AllCheck Guess=TCheck SCRF=Check B3LYP/GTBas3 Freq
 ----------------------------------------------------------

 Structure from the checkpoint file:  "/home/artemiy/opt/gaussian/scr/Gau-21397.chk"
 -------------------
 Title Card Required
 -------------------
 Charge =  0 Multiplicity = 1

 SCF Done:  E(RB3LYP) =  -643.555530717     A.U. after    1 cycles

  Exact polarizability:  91.901   5.237  62.269  -0.002   0.001  41.345
 Approx polarizability: 130.013   6.551 104.241  -0.006   0.002  63.847

                      1                      2                      3
                      A                      A                      A
 Frequencies --     12.7401                91.3520               121.0598
 Red. masses --      8.4952                 2.4471                 1.5853
 Frc consts  --      0.0008                 0.0120                 0.0137
 IR Inten    --      0.7528                 0.0804                 1.4622

                      4                      5                      6
                      A                      A                      A
 Frequencies --    156.4885               176.3917               279.4773
 Red. masses --      6.2373                 3.5546                 8.0456
 Frc consts  --      0.0900                 0.0652                 0.3703
 IR Inten    --      0.1982                 0.0599                 5.0037

                      7                      8                      9
                      A                      A                      A
 Frequencies --    280.8120               307.6096               399.0651
 Red. masses --     12.7125                 6.3724                 5.1993
 Frc consts  --      0.5906                 0.3553                 0.4878
 IR Inten    --      0.8756                 1.0299                 5.8206

                     10                     11                     12
                      A                      A                      A
 Frequencies --    438.9437               516.1450               535.6523
 Red. masses --      9.9886                14.8734                 4.2961
 Frc consts  --      1.1339                 2.3346                 0.7263
 IR Inten    --      0.9325                 3.2348                14.7091

                     13                     14                     15
                      A                      A                      A
 Frequencies --    582.0295               600.0659               733.0620
 Red. masses --     13.2542                 3.0927                12.6049
 Frc consts  --      2.6454                 0.6561                 3.9909
 IR Inten    --      3.2073                 0.0020                34.7611

                     16                     17                     18
                      A                      A                      A
 Frequencies --    782.7692               811.5710               873.0536
 Red. masses --      2.7284                 1.5833                 7.4153
 Frc consts  --      0.9850                 0.6144                 3.3301
 IR Inten    --      0.4678                33.8131                29.1424

                     19                     20                     21
                      A                      A                      A
 Frequencies --    963.7810               978.0169              1027.5409
 Red. masses --      4.8844                 1.1062                 1.5230
 Frc consts  --      2.6731                 0.6234                 0.9474
 IR Inten    --      2.8597                69.5135                 5.3843

                     22                     23                     24
                      A                      A                      A
 Frequencies --   1057.9017              1126.9848              1207.5448
 Red. masses --      1.6842                 2.3963                12.9214
 Frc consts  --      1.1106                 1.7932                11.1011
 IR Inten    --      3.9454               148.1795               236.5529

                     25                     26                     27
                      A                      A                      A
 Frequencies --   1214.9488              1226.5127              1321.1460
 Red. masses --      4.6622                 2.9543                 4.0812
 Frc consts  --      4.0547                 2.6185                 4.1970
 IR Inten    --    134.1126               224.4380               150.5156

                     28                     29                     30
                      A                      A                      A
 Frequencies --   1396.4551              1419.2776              1468.4281
 Red. masses --      1.5323                 2.5879                 1.0442
 Frc consts  --      1.7606                 3.0713                 1.3266
 IR Inten    --     51.4566                46.4587                 7.2367

                     31                     32                     33
                      A                      A                      A
 Frequencies --   1469.7144              1503.0499              1657.0625
 Red. masses --      1.1913                 2.2636                 2.1353
 Frc consts  --      1.5161                 3.0129                 3.4545
 IR Inten    --     76.8741                64.2088               471.6198

                     34                     35                     36
                      A                      A                      A
 Frequencies --   1694.0043              3038.9108              3047.2083
 Red. masses --      9.5643                 1.0699                 1.0416
 Frc consts  --     16.1708                 5.8213                 5.6983
 IR Inten    --    120.7473               213.0033                50.2510

                     37                     38                     39
                      A                      A                      A
 Frequencies --   3104.9447              3154.5720              3258.5342
 Red. masses --      1.0987                 1.1011                 1.0914
 Frc consts  --      6.2407                 6.4559                 6.8275
 IR Inten    --      3.2747                 6.8069                 1.3712

 - Thermochemistry -
 -------------------
 Temperature   298.150 Kelvin.  Pressure   1.00000 Atm.
 Atom     1 has atomic number  6 and mass  12.00000

 Molecular mass:   154.02416 amu.
 Principal axes and moments of inertia in atomic units:
                           1         2         3
     Eigenvalues --   653.201362416.207552740.74538
           X            0.99967   0.02578  -0.00000
           Y           -0.02578   0.99967   0.00000
           Z            0.00000  -0.00000   1.00000
 This molecule is an asymmetric top.
 Rotational symmetry number  1.
 Warning -- assumption of classical behavior for rotation
           may cause significant error
 Rotational temperatures (Kelvin)      0.13260     0.03585     0.03160
 Rotational constants (GHZ):           2.76292     0.74693     0.65849
 Zero-point vibrational energy     263386.8 (Joules/Mol)
                                   62.95095 (Kcal/Mol)
 Warning -- explicit consideration of  14 degrees of freedom as
           vibrations may cause significant error
 Vibrational temperatures:     18.33   131.44   174.18   225.15   253.79
          (Kelvin)            402.11   404.03   442.58   574.17   631.54
                              742.62   770.68   837.41   863.36  1054.71
                             1126.23  1167.67  1256.13  1386.67  1407.15
                             1478.40  1522.08  1621.48  1737.39  1748.04
                             1764.68  1900.83  2009.19  2042.02  2112.74
                             2114.59  2162.55  2384.14  2437.29  4372.31
                             4384.25  4467.32  4538.73  4688.30

 Zero-point correction=                           0.100319 (Hartree/Particle)
 Thermal correction to Energy=                    0.109949
 Thermal correction to Enthalpy=                  0.110894
 Thermal correction to Gibbs Free Energy=         0.063422
 Sum of electronic and zero-point Energies=           -643.455212
 Sum of electronic and thermal Energies=              -643.445581
 Sum of electronic and thermal Enthalpies=            -643.444637
 Sum of electronic and thermal Free Energies=         -643.492109

                     E (Thermal)             CV                S
                      KCal/Mol        Cal/Mol-Kelvin    Cal/Mol-Kelvin
 Total                   68.994             33.637             99.912
 Electronic               0.000              0.000              0.000
 Translational            0.889              2.981             41.006
 Rotational               0.889              2.981             29.849
 Vibrational             67.217             27.675             29.058
 Vibration     1          0.593              1.987              7.530
 Vibration     2          0.602              1.955              3.631
 Vibration     3          0.609              1.932              3.083
 Vibration     4          0.620              1.895              2.592
 Vibration     5          0.628              1.871              2.366
 Vibration     6          0.680              1.712              1.537
 Vibration     7          0.680              1.709              1.529
 Vibration     8          0.697              1.659              1.375
 Vibration     9          0.765              1.472              0.966
 Vibration    10          0.799              1.385              0.830
 Vibration    11          0.871              1.214              0.619
 Vibration    12          0.891              1.171              0.575
 Vibration    13          0.939              1.070              0.482
 Vibration    14          0.958              1.032              0.450

                           ! Non-Optimized Parameters !
 Normal termination of Gaussian 16 at Sat Nov 13 09:44:41 2021.

 -----------------------------------------------------------------
 #N Geom=AllCheck Guess=TCheck SCRF=Check CCSD(T,E4T,FrzG4)/GTBas1
 -----------------------------------------------------------------

 Structure from the checkpoint file:  "/home/artemiy/opt/gaussian/scr/Gau-21397.chk"
 -------------------
 Title Card Required
 -------------------
 Charge =  0 Multiplicity = 1

 SCF Done:  E(RHF) =  -640.289390383     A.U. after   14 cycles
 E2 =    -0.1501490497D+01 EUMP2 =    -0.64179088088001D+03
 CCSD(T)= -0.64187426524D+03
 4SDQ=-641.8311044\CCSD=-641.8254274\CCSD(T)=-641.8742652\RMSD=6.278e-0
 Normal termination of Gaussian 16 at Sat Nov 13 11:18:12 2021.

 ---------------------------------------------------------
 #N Geom=AllCheck Guess=TCheck SCRF=Check MP4=FrzG4/GTBas2
 ---------------------------------------------------------

 Structure from the checkpoint file:  "/home/artemiy/opt/gaussian/scr/Gau-21397.chk"
 -------------------
 Title Card Required
 -------------------
 Charge =  0 Multiplicity = 1

 SCF Done:  E(RHF) =  -640.309226224     A.U. after   13 cycles
 E2 =    -0.1527216086D+01 EUMP2 =    -0.64183644231041D+03
 Normal termination of Gaussian 16 at Sat Nov 13 11:53:23 2021.

 ---------------------------------------------------------
 #N Geom=AllCheck Guess=TCheck SCRF=Check MP4=FrzG4/GTBas3
 ---------------------------------------------------------

 Structure from the checkpoint file:  "/home/artemiy/opt/gaussian/scr/Gau-21397.chk"
 -------------------
 Title Card Required
 -------------------
 Charge =  0 Multiplicity = 1

 SCF Done:  E(RHF) =  -640.341111390     A.U. after   12 cycles
 E2 =    -0.1872859129D+01 EUMP2 =    -0.64221397051907D+03
 Normal termination of Gaussian 16 at Sat Nov 13 16:10:51 2021.

 -----------------------------------------------------------
 #N Geom=AllCheck Guess=TCheck SCRF=Check MP2=Full/GTLargeXP
 -----------------------------------------------------------

 Structure from the checkpoint file:  "/home/artemiy/opt/gaussian/scr/Gau-21397.chk"
 -------------------
 Title Card Required
 -------------------
 Charge =  0 Multiplicity = 1

 SCF Done:  E(RHF) =  -640.526861168     A.U. after   13 cycles
 E2 =    -0.2482326286D+01 EUMP2 =    -0.64300918745326D+03
 Normal termination of Gaussian 16 at Sat Nov 13 16:51:23 2021.
 SCF Done:  E(RHF) =  -640.583272929     A.U. after    8 cycles
 Normal termination of Gaussian 16 at Sat Nov 13 17:06:17 2021.

                         Standard orientation:
 ---------------------------------------------------------------------
 Center     Atomic      Atomic             Coordinates (Angstroms)
 Number     Number       Type             X           Y           Z
 ---------------------------------------------------------------------
      1          6           0       -3.336824   -0.999938    0.000047
      2          6           0       -2.130259   -0.119448   -0.000020
      3          6           0       -0.835869   -0.589829   -0.000225
      4          6           0        0.237349    0.345981   -0.000192
      5          8           0        0.103528    1.577635   -0.000126
      6          6           0        1.689925   -0.182023    0.000033
      7          9           0        1.743471   -1.521434   -0.001391
      8          9           0        2.337599    0.258092   -1.080827
      9          9           0        2.336439    0.255769    1.082494
     10          1           0       -0.640610   -1.650425   -0.000321
     11          8           0       -2.401059    1.168233    0.000087
     12          1           0       -1.517134    1.644873    0.000055
     13          1           0       -3.950997   -0.783357    0.880378
     14          1           0       -3.951295   -0.783134   -0.880019
     15          1           0       -3.063228   -2.055194   -0.000120
 ---------------------------------------------------------------------

 SCF Done:  E(RHF) =  -640.594974539     A.U. after    7 cycles

 The electronic state is 1-A.
 Alpha  occ. eigenvalues --  -26.34878 -26.34421 -26.34417 -20.61486 -20.57416
 Alpha  occ. eigenvalues --  -11.51942 -11.37465 -11.37190 -11.26206 -11.24219
 Alpha  occ. eigenvalues --   -1.74114  -1.64671  -1.64389  -1.45783  -1.40893
 Alpha  occ. eigenvalues --   -1.10688  -1.04222  -0.99663  -0.89379  -0.84472
 Alpha  occ. eigenvalues --   -0.83400  -0.82811  -0.77731  -0.73073  -0.72120
 Alpha  occ. eigenvalues --   -0.70940  -0.68555  -0.67589  -0.67074  -0.65906
 Alpha  occ. eigenvalues --   -0.64807  -0.62546  -0.61149  -0.58564  -0.57887
 Alpha  occ. eigenvalues --   -0.56919  -0.55262  -0.45829  -0.37697
 Alpha virt. eigenvalues --    0.02691   0.04221   0.04608   0.05091   0.05726
 Alpha virt. eigenvalues --    0.05742   0.06432   0.06695   0.07610   0.07865
 Alpha virt. eigenvalues --    0.08359   0.08745   0.09942   0.10783   0.11239

 Mulliken charges:
               1
     1  C   -0.551653
     2  C    0.451547
     3  C   -0.397278
     4  C    0.504826
     5  O   -0.605651
     6  C    0.728454
     7  F   -0.301963
     8  F   -0.274132
     9  F   -0.274184
    10  H    0.221314
    11  O   -0.554425
    12  H    0.449676
    13  H    0.209803
    14  H    0.209810
    15  H    0.183857
 Sum of Mulliken charges =  -0.00000

 Dipole moment (field-independent basis, Debye):
    X=             -3.4085    Y=             -2.8100    Z=              0.0000  Tot=              4.4174
 Quadrupole moment (field-independent basis, Debye-Ang):
   XX=            -52.9395   YY=            -58.6309   ZZ=            -56.7957
   XY=              4.3937   XZ=              0.0003   YZ=              0.0002

 Normal termination of Gaussian 16 at Sat Nov 13 19:20:44 2021.
