 Gaussian 16, Revision A.03,
 Gaussian 16:  ES64L-G16RevA.03 25-Dec-2016

 ----------------
 # g3mp2 geom=gic
 ----------------

 -------------------
 CAS 1345980-45-1
 -------------------
 Symbolic Z-matrix:
 Charge =  0 Multiplicity = 1

 SCF Done:  E(RHF) =  -430.045789055     A.U. after   14 cycles
 SCF Done:  E(RHF) =  -430.048629268     A.U. after   14 cycles
 SCF Done:  E(RHF) =  -430.040967358     A.U. after   15 cycles
 SCF Done:  E(RHF) =  -430.048663295     A.U. after   13 cycles
 SCF Done:  E(RHF) =  -430.048935319     A.U. after   13 cycles
 SCF Done:  E(RHF) =  -430.049047490     A.U. after   12 cycles
 SCF Done:  E(RHF) =  -430.049051162     A.U. after   10 cycles
 SCF Done:  E(RHF) =  -430.049051392     A.U. after    9 cycles
 Optimization completed.
    -- Stationary point found.
 Normal termination of Gaussian 16 at Fri Jun 17 13:01:11 2022.

 -------------------------------------------------------
 #N Geom=AllCheck Guess=TCheck SCRF=Check HF/GTBas1 Freq
 -------------------------------------------------------

 Structure from the checkpoint file:  "/home/artemiy/opt/gaussian/scr/Gau-2710.chk"
 -------------------
 Title Card Required
 -------------------
 Charge =  0 Multiplicity = 1

 SCF Done:  E(RHF) =  -430.049051392     A.U. after    1 cycles

  Exact polarizability:  84.380  -0.004  62.988  10.939  -0.001  56.494
 Approx polarizability:  74.112  -0.005  60.771  12.821  -0.002  54.690

                      1                      2                      3
                      A                      A                      A
 Frequencies --     78.6747               107.9763               143.2196
 Red. masses --      4.8831                 7.0648                10.4095
 Frc consts  --      0.0178                 0.0485                 0.1258
 IR Inten    --      0.1452                 0.6433                 5.7033
 Raman Activ --      4.1563                 1.7644                 3.4484

                      4                      5                      6
                      A                      A                      A
 Frequencies --    143.9463               173.9829               234.3444
 Red. masses --      9.9951                 9.8435                 4.3914
 Frc consts  --      0.1220                 0.1756                 0.1421
 IR Inten    --      6.3888                19.6559                 3.0414
 Raman Activ --      7.3992                 1.9676                 3.4104

                      7                      8                      9
                      A                      A                      A
 Frequencies --    251.9087               384.6648               415.3343
 Red. masses --      6.7355                 3.0838                 7.5773
 Frc consts  --      0.2518                 0.2688                 0.7701
 IR Inten    --      4.1959                 9.2829                 2.0260
 Raman Activ --      6.4365                 8.6614                 2.3348

                     10                     11                     12
                      A                      A                      A
 Frequencies --    481.2714               528.7818               542.1004
 Red. masses --      7.6314                 6.2565                10.2559
 Frc consts  --      1.0414                 1.0307                 1.7757
 IR Inten    --      9.3182                 1.3031                 2.0120
 Raman Activ --      5.2670                 1.8091                 4.8172

                     13                     14                     15
                      A                      A                      A
 Frequencies --    619.1766               642.2003               646.2653
 Red. masses --     12.7062                12.0149                11.8503
 Frc consts  --      2.8701                 2.9195                 2.9161
 IR Inten    --      2.0069                 1.0698                 0.9749
 Raman Activ --      3.9205                 3.7941                 5.4778

                     16                     17                     18
                      A                      A                      A
 Frequencies --    760.4028               816.1715               851.2835
 Red. masses --      5.5817                 1.2789                 1.3011
 Frc consts  --      1.9015                 0.5019                 0.5555
 IR Inten    --     22.0670                43.6931                38.1853
 Raman Activ --      6.1927                 2.0741                 3.2711

                     19                     20                     21
                      A                      A                      A
 Frequencies --    992.6435              1026.8388              1148.4435
 Red. masses --      2.0737                 4.6894                 6.0614
 Frc consts  --      1.2039                 2.9132                 4.7102
 IR Inten    --      6.9147                12.3290                 0.2994
 Raman Activ --      1.4267                 4.7137                19.5599

                     22                     23                     24
                      A                      A                      A
 Frequencies --   1209.3570              1212.0789              1410.1998
 Red. masses --      2.6702                 9.2684                 1.3204
 Frc consts  --      2.3009                 8.0226                 1.5470
 IR Inten    --     24.7468                35.3305                13.3474
 Raman Activ --      2.5330                 9.5898                 4.9626

                     25                     26                     27
                      A                      A                      A
 Frequencies --   1497.3022              1618.6808              2430.2830
 Red. masses --      1.4151                 1.0860                 5.6256
 Frc consts  --      1.8692                 1.6765                19.5762
 IR Inten    --     10.0170                 4.3265                 9.7288
 Raman Activ --      8.3715                10.3021               117.7760

                     28                     29                     30
                      A                      A                      A
 Frequencies --   2637.3819              2639.6289              2642.2979
 Red. masses --     12.7139                12.7101                12.7065
 Frc consts  --     52.1043                52.1775                52.2683
 IR Inten    --      0.4556                 0.1566                 1.0651
 Raman Activ --     50.9913                31.4495                94.2163

                     31                     32                     33
                      A                      A                      A
 Frequencies --   3255.3533              3307.4869              3661.4870
 Red. masses --      1.0600                 1.1074                 1.1743
 Frc consts  --      6.6183                 7.1378                 9.2756
 IR Inten    --      3.2248                 0.9521                61.5359
 Raman Activ --    103.9845                63.3855                28.7746

 - Thermochemistry -
 -------------------
 Temperature   298.150 Kelvin.  Pressure   1.00000 Atm.
 Atom     1 has atomic number  6 and mass  12.00000

 Molecular mass:   129.03270 amu.
 Principal axes and moments of inertia in atomic units:
                           1         2         3
     Eigenvalues --  1040.165111659.332651804.58831
           X            0.99997  -0.00000  -0.00828
           Y            0.00000   1.00000  -0.00000
           Z            0.00828   0.00000   0.99997
 This molecule is an asymmetric top.
 Rotational symmetry number  1.
 Warning -- assumption of classical behavior for rotation
           may cause significant error
 Rotational temperatures (Kelvin)      0.08327     0.05220     0.04800
 Rotational constants (GHZ):           1.73505     1.08763     1.00008
 Zero-point vibrational energy     230347.9 (Joules/Mol)
                                   55.05448 (Kcal/Mol)
 Warning -- explicit consideration of  13 degrees of freedom as
           vibrations may cause significant error
 Vibrational temperatures:    113.20   155.35   206.06   207.11   250.32
          (Kelvin)            337.17   362.44   553.45   597.57   692.44
                              760.80   779.96   890.86   923.98   929.83
                             1094.05  1174.29  1224.81  1428.19  1477.39
                             1652.35  1740.00  1743.91  2028.96  2154.28
                             2328.92  3496.64  3794.60  3797.84  3801.68
                             4683.73  4758.74  5268.06

 Zero-point correction=                           0.087735 (Hartree/Particle)
 Thermal correction to Energy=                    0.097016
 Thermal correction to Enthalpy=                  0.097960
 Thermal correction to Gibbs Free Energy=         0.053008
 Sum of electronic and zero-point Energies=           -429.961316
 Sum of electronic and thermal Energies=              -429.952035
 Sum of electronic and thermal Enthalpies=            -429.951091
 Sum of electronic and thermal Free Energies=         -429.996044

                     E (Thermal)             CV                S
                      KCal/Mol        Cal/Mol-Kelvin    Cal/Mol-Kelvin
 Total                   60.879             32.071             94.611
 Electronic               0.000              0.000              0.000
 Translational            0.889              2.981             40.478
 Rotational               0.889              2.981             29.522
 Vibrational             59.101             26.109             24.611
 Vibration     1          0.600              1.964              3.924
 Vibration     2          0.606              1.943              3.305
 Vibration     3          0.616              1.910              2.760
 Vibration     4          0.616              1.909              2.751
 Vibration     5          0.627              1.874              2.392
 Vibration     6          0.654              1.788              1.845
 Vibration     7          0.664              1.760              1.717
 Vibration     8          0.754              1.503              1.021
 Vibration     9          0.779              1.437              0.908
 Vibration    10          0.838              1.292              0.707
 Vibration    11          0.884              1.186              0.590
 Vibration    12          0.897              1.157              0.561
 Vibration    13          0.979              0.991              0.418

 Optimization completed.
    -- Stationary point found.
 Normal termination of Gaussian 16 at Fri Jun 17 13:01:46 2022.

 ------------------------------------------------------------------
 #N Geom=AllCheck Guess=TCheck SCRF=Check MP2(Full)/GTBas1 Opt=RCFC
 ------------------------------------------------------------------

 Structure from the checkpoint file:  "/home/artemiy/opt/gaussian/scr/Gau-2710.chk"
 -------------------
 Title Card Required
 -------------------
 Charge =  0 Multiplicity = 1

 SCF Done:  E(RHF) =  -430.049051392     A.U. after    1 cycles
 E2 =    -0.1379494596D+01 EUMP2 =    -0.43142854598808D+03
 SCF Done:  E(RHF) =  -430.035381934     A.U. after   14 cycles
 E2 =    -0.1410473857D+01 EUMP2 =    -0.43144585579127D+03
 SCF Done:  E(RHF) =  -430.027398497     A.U. after   13 cycles
 E2 =    -0.1419203347D+01 EUMP2 =    -0.43144660184390D+03
 SCF Done:  E(RHF) =  -430.027453031     A.U. after   12 cycles
 E2 =    -0.1419162070D+01 EUMP2 =    -0.43144661510171D+03
 SCF Done:  E(RHF) =  -430.027418898     A.U. after    9 cycles
 E2 =    -0.1419196554D+01 EUMP2 =    -0.43144661545213D+03
 Optimization completed.
    -- Stationary point found.
 Normal termination of Gaussian 16 at Fri Jun 17 13:04:14 2022.

 --------------------------------------------------------------
 #N Geom=AllCheck Guess=TCheck SCRF=Check QCISD(T,FrzG3)/GTBas1
 --------------------------------------------------------------

 Structure from the checkpoint file:  "/home/artemiy/opt/gaussian/scr/Gau-2710.chk"
 -------------------
 Title Card Required
 -------------------
 Charge =  0 Multiplicity = 1

 SCF Done:  E(RHF) =  -430.027418898     A.U. after    1 cycles
 E2 =    -0.1373240601D+01 EUMP2 =    -0.43140065949851D+03
 Normal termination of Gaussian 16 at Fri Jun 17 13:34:42 2022.

 -------------------------------------------------------------
 #N Geom=AllCheck Guess=TCheck SCRF=Check MP2=FrzG3/GTMP2Large
 -------------------------------------------------------------

 Structure from the checkpoint file:  "/home/artemiy/opt/gaussian/scr/Gau-2710.chk"
 -------------------
 Title Card Required
 -------------------
 Charge =  0 Multiplicity = 1

                         Standard orientation:
 ---------------------------------------------------------------------
 Center     Atomic      Atomic             Coordinates (Angstroms)
 Number     Number       Type             X           Y           Z
 ---------------------------------------------------------------------
      1          6           0       -0.456809   -0.000001   -0.035325
      2          6           0        0.510465   -0.000001   -1.262094
      3          1           0        0.276542   -0.886035   -1.862685
      4          1           0        0.276537    0.886029   -1.862689
      5          6           0        1.898482    0.000004   -0.826334
      6          6           0       -1.848217   -0.000007   -0.521048
      7          6           0       -0.221211   -1.203010    0.781751
      8          6           0       -0.221220    1.203012    0.781748
      9          6           0        3.058858    0.000005   -0.454807
     10          1           0        4.072218    0.000000   -0.119765
     11          7           0       -0.024229    2.181047    1.413930
     12          7           0       -2.944045   -0.000007   -0.961896
     13          7           0       -0.024210   -2.181040    1.413936
 ---------------------------------------------------------------------

 SCF Done:  E(RHF) =  -430.155158940     A.U. after   13 cycles
 E2 =    -0.1646398995D+01 EUMP2 =    -0.43180155793494D+03

 The electronic state is 1-A.
 Alpha  occ. eigenvalues --  -15.64284 -15.63756 -15.63756 -11.42921 -11.34278
 Alpha  occ. eigenvalues --  -11.34167 -11.33797 -11.33796 -11.28176 -11.27737
 Alpha  occ. eigenvalues --   -1.29328  -1.25608  -1.25257  -1.19298  -1.08716
 Alpha  occ. eigenvalues --   -0.99950  -0.85364  -0.84958  -0.76574  -0.70475
 Alpha  occ. eigenvalues --   -0.67814  -0.65941  -0.61781  -0.60930  -0.60610
 Alpha  occ. eigenvalues --   -0.53206  -0.53162  -0.50960  -0.50489  -0.50197
 Alpha  occ. eigenvalues --   -0.49806  -0.43219  -0.42886
 Alpha virt. eigenvalues --    0.02890   0.04050   0.05450   0.06439   0.07729
 Alpha virt. eigenvalues --    0.08683   0.08771   0.09466   0.09624   0.10248
 Alpha virt. eigenvalues --    0.10417   0.11352   0.12316   0.12723   0.12977

 Mulliken charges:
               1
     1  C    1.585727
     2  C   -0.297565
     3  H    0.151628
     4  H    0.151628
     5  C    0.034291
     6  C   -0.248903
     7  C   -0.249328
     8  C   -0.249331
     9  C   -0.260869
    10  H    0.200152
    11  N   -0.274838
    12  N   -0.267752
    13  N   -0.274839
 Sum of Mulliken charges =  -0.00000

 Dipole moment (field-independent basis, Debye):
    X=              2.8215    Y=             -0.0000    Z=             -2.9448  Tot=              4.0783
 Quadrupole moment (field-independent basis, Debye-Ang):
   XX=            -59.0867   YY=            -69.3449   ZZ=            -60.7044
   XY=              0.0000   XZ=             -2.5269   YZ=              0.0000

 Normal termination of Gaussian 16 at Fri Jun 17 13:41:08 2022.
