 Gaussian 16, Revision A.03,
 Gaussian 16:  ES64L-G16RevA.03 25-Dec-2016

 -------------
 # g4 geom=gic
 -------------

 -------------------
 CAS 1522-22-1
 -------------------
 Symbolic Z-matrix:
 Charge =  0 Multiplicity = 1

 SCF Done:  E(RB3LYP) =  -941.272452306     A.U. after   14 cycles
 SCF Done:  E(RB3LYP) =  -941.273687386     A.U. after   11 cycles
 SCF Done:  E(RB3LYP) =  -941.274093948     A.U. after   11 cycles
 SCF Done:  E(RB3LYP) =  -941.274105815     A.U. after   11 cycles
 SCF Done:  E(RB3LYP) =  -941.274130677     A.U. after   10 cycles
 SCF Done:  E(RB3LYP) =  -941.274133819     A.U. after    8 cycles
 SCF Done:  E(RB3LYP) =  -941.274134327     A.U. after    8 cycles
 Optimization completed.
    -- Stationary point found.
 Normal termination of Gaussian 16 at Tue Nov 23 21:54:50 2021.

 ----------------------------------------------------------
 #N Geom=AllCheck Guess=TCheck SCRF=Check B3LYP/GTBas3 Freq
 ----------------------------------------------------------

 Structure from the checkpoint file:  "/home/artemiy/opt/gaussian/scr/Gau-7856.chk"
 -------------------
 Title Card Required
 -------------------
 Charge =  0 Multiplicity = 1

 SCF Done:  E(RB3LYP) =  -941.274134327     A.U. after    1 cycles

  Exact polarizability:  90.840  -1.322  63.675  -0.004   0.000  43.839
 Approx polarizability: 128.818  -3.504 107.457  -0.012  -0.003  69.116

 ******    1 imaginary frequencies (negative Signs) ******

                      1                      2                      3
                      A                      A                      A
 Frequencies --    -15.6887                31.4560                89.7387
 Red. masses --     15.4909                16.3314                 7.4997
 Frc consts  --      0.0022                 0.0095                 0.0356
 IR Inten    --      0.2096                 0.0342                 1.7974

                      4                      5                      6
                      A                      A                      A
 Frequencies --    102.3116               120.6077               215.2318
 Red. masses --     14.5273                13.7195                13.5894
 Frc consts  --      0.0896                 0.1176                 0.3709
 IR Inten    --      0.9496                 1.5497                 2.8679

                      7                      8                      9
                      A                      A                      A
 Frequencies --    241.5287               254.3514               303.7769
 Red. masses --     11.9836                15.7916                10.7333
 Frc consts  --      0.4119                 0.6019                 0.5836
 IR Inten    --      1.8008                 0.6585                 0.0211

                     10                     11                     12
                      A                      A                      A
 Frequencies --    318.3758               360.1239               433.1927
 Red. masses --      8.8651                14.2935                11.6947
 Frc consts  --      0.5294                 1.0922                 1.2930
 IR Inten    --      4.3651                 1.1217                 0.2541

                     13                     14                     15
                      A                      A                      A
 Frequencies --    439.1976               512.3479               526.7067
 Red. masses --     12.7984                16.9626                15.1798
 Frc consts  --      1.4545                 2.6235                 2.4812
 IR Inten    --      0.4572                 0.0402                 3.4240

                     16                     17                     18
                      A                      A                      A
 Frequencies --    574.3516               587.8239               666.0232
 Red. masses --     15.4441                14.1632                11.1859
 Frc consts  --      3.0017                 2.8834                 2.9235
 IR Inten    --      8.6909                18.7618                62.7256

                     19                     20                     21
                      A                      A                      A
 Frequencies --    730.8715               746.6139               776.6252
 Red. masses --      8.5127                15.1761                 2.2496
 Frc consts  --      2.6792                 4.9843                 0.7994
 IR Inten    --      1.2289                 8.6225                 3.4277

                     22                     23                     24
                      A                      A                      A
 Frequencies --    826.4681               831.4255               909.0852
 Red. masses --     12.8130                 1.8401                 1.1529
 Frc consts  --      5.1565                 0.7494                 0.5614
 IR Inten    --      5.0279                34.5312                68.2364

                     25                     26                     27
                      A                      A                      A
 Frequencies --    936.5965              1114.4118              1133.7101
 Red. masses --      6.1527                 4.0111                 2.4964
 Frc consts  --      3.1800                 2.9350                 1.8904
 IR Inten    --     10.0336               168.3591                51.6312

                     28                     29                     30
                      A                      A                      A
 Frequencies --   1184.7553              1210.5867              1235.7929
 Red. masses --     12.9920                12.7803                12.1508
 Frc consts  --     10.7445                11.0352                10.9332
 IR Inten    --    234.1975               237.4512               335.5705

                     31                     32                     33
                      A                      A                      A
 Frequencies --   1241.3128              1282.0648              1344.3547
 Red. masses --      7.2377                 4.3191                 4.0327
 Frc consts  --      6.5707                 4.1827                 4.2941
 IR Inten    --    126.7956               564.2244                16.3796

                     34                     35                     36
                      A                      A                      A
 Frequencies --   1423.0546              1479.3875              1664.3764
 Red. masses --      2.2360                 4.3946                 3.3537
 Frc consts  --      2.6679                 5.6668                 5.4737
 IR Inten    --    102.6943                77.4424               251.9384

                     37                     38                     39
                      A                      A                      A
 Frequencies --   1731.4408              3173.3392              3261.1052
 Red. masses --     10.4517                 1.0698                 1.0919
 Frc consts  --     18.4609                 6.3474                 6.8415
 IR Inten    --    113.7621               224.7128                 3.3540

 - Thermochemistry -
 -------------------
 Temperature   298.150 Kelvin.  Pressure   1.00000 Atm.
 Atom     1 has atomic number  6 and mass  12.00000

 Molecular mass:   207.99590 amu.
 Principal axes and moments of inertia in atomic units:
                           1         2         3
     Eigenvalues --  1064.317474770.535085199.80320
           X            1.00000  -0.00079  -0.00000
           Y            0.00079   1.00000   0.00002
           Z            0.00000  -0.00002   1.00000
 This molecule is an asymmetric top.
 Rotational symmetry number  1.
 Warning -- assumption of classical behavior for rotation
           may cause significant error
 Rotational temperatures (Kelvin)      0.08138     0.01816     0.01666
 Rotational constants (GHZ):           1.69568     0.37831     0.34708
    1 imaginary frequencies ignored.
 Zero-point vibrational energy     203452.0 (Joules/Mol)
                                   48.62620 (Kcal/Mol)
 Warning -- explicit consideration of  16 degrees of freedom as
           vibrations may cause significant error
 Vibrational temperatures:     45.26   129.11   147.20   173.53   309.67
          (Kelvin)            347.51   365.95   437.07   458.07   518.14
                              623.27   631.91   737.15   757.81   826.36
                              845.75   958.26  1051.56  1074.21  1117.39
                             1189.10  1196.24  1307.97  1347.55  1603.39
                             1631.16  1704.60  1741.76  1778.03  1785.97
                             1844.61  1934.23  2047.46  2128.51  2394.67
                             2491.16  4565.73  4692.00

 Zero-point correction=                           0.077491 (Hartree/Particle)
 Thermal correction to Energy=                    0.088165
 Thermal correction to Enthalpy=                  0.089110
 Thermal correction to Gibbs Free Energy=         0.039349
 Sum of electronic and zero-point Energies=           -941.196644
 Sum of electronic and thermal Energies=              -941.185969
 Sum of electronic and thermal Enthalpies=            -941.185025
 Sum of electronic and thermal Free Energies=         -941.234785

                     E (Thermal)             CV                S
                      KCal/Mol        Cal/Mol-Kelvin    Cal/Mol-Kelvin
 Total                   55.325             38.412            104.729
 Electronic               0.000              0.000              0.000
 Translational            0.889              2.981             41.901
 Rotational               0.889              2.981             31.646
 Vibrational             53.547             32.450             31.182
 Vibration     1          0.594              1.983              5.735
 Vibration     2          0.602              1.956              3.666
 Vibration     3          0.604              1.947              3.410
 Vibration     4          0.609              1.932              3.091
 Vibration     5          0.645              1.818              1.999
 Vibration     6          0.658              1.777              1.792
 Vibration     7          0.665              1.755              1.700
 Vibration     8          0.695              1.667              1.396
 Vibration     9          0.705              1.638              1.318
 Vibration    10          0.735              1.554              1.122
 Vibration    11          0.794              1.398              0.848
 Vibration    12          0.799              1.385              0.829
 Vibration    13          0.867              1.223              0.628
 Vibration    14          0.882              1.191              0.595
 Vibration    15          0.931              1.087              0.496
 Vibration    16          0.945              1.058              0.471

                           ! Non-Optimized Parameters !
 Normal termination of Gaussian 16 at Tue Nov 23 22:06:02 2021.

 -----------------------------------------------------------------
 #N Geom=AllCheck Guess=TCheck SCRF=Check CCSD(T,E4T,FrzG4)/GTBas1
 -----------------------------------------------------------------

 Structure from the checkpoint file:  "/home/artemiy/opt/gaussian/scr/Gau-7856.chk"
 -------------------
 Title Card Required
 -------------------
 Charge =  0 Multiplicity = 1

 SCF Done:  E(RHF) =  -936.855724267     A.U. after   14 cycles
 E2 =    -0.2004997104D+01 EUMP2 =    -0.93886072137081D+03
 CCSD(T)= -0.93894541908D+03
 MP4SDQ=-938.8943067\CCSD=-938.8845536\CCSD(T)=-938.9454191\RMSD=3.069e
 Normal termination of Gaussian 16 at Tue Nov 23 23:14:37 2021.

 ---------------------------------------------------------
 #N Geom=AllCheck Guess=TCheck SCRF=Check MP4=FrzG4/GTBas2
 ---------------------------------------------------------

 Structure from the checkpoint file:  "/home/artemiy/opt/gaussian/scr/Gau-7856.chk"
 -------------------
 Title Card Required
 -------------------
 Charge =  0 Multiplicity = 1

 SCF Done:  E(RHF) =  -936.884927665     A.U. after   13 cycles
 E2 =    -0.2043025390D+01 EUMP2 =    -0.93892795305492D+03
 Normal termination of Gaussian 16 at Wed Nov 24 00:21:50 2021.

 ---------------------------------------------------------
 #N Geom=AllCheck Guess=TCheck SCRF=Check MP4=FrzG4/GTBas3
 ---------------------------------------------------------

 Structure from the checkpoint file:  "/home/artemiy/opt/gaussian/scr/Gau-7856.chk"
 -------------------
 Title Card Required
 -------------------
 Charge =  0 Multiplicity = 1

 SCF Done:  E(RHF) =  -936.918795929     A.U. after   12 cycles
 E2 =    -0.2522697200D+01 EUMP2 =    -0.93944149312881D+03
 Normal termination of Gaussian 16 at Wed Nov 24 05:47:52 2021.

 -----------------------------------------------------------
 #N Geom=AllCheck Guess=TCheck SCRF=Check MP2=Full/GTLargeXP
 -----------------------------------------------------------

 Structure from the checkpoint file:  "/home/artemiy/opt/gaussian/scr/Gau-7856.chk"
 -------------------
 Title Card Required
 -------------------
 Charge =  0 Multiplicity = 1

 SCF Done:  E(RHF) =  -937.202668676     A.U. after   13 cycles
 E2 =    -0.3356185621D+01 EUMP2 =    -0.94055885429741D+03
 Normal termination of Gaussian 16 at Wed Nov 24 06:14:12 2021.
 SCF Done:  E(RHF) =  -937.287499707     A.U. after    9 cycles
 Normal termination of Gaussian 16 at Wed Nov 24 06:32:14 2021.

                         Standard orientation:
 ---------------------------------------------------------------------
 Center     Atomic      Atomic             Coordinates (Angstroms)
 Number     Number       Type             X           Y           Z
 ---------------------------------------------------------------------
      1          6           0       -2.519074   -0.311563   -0.000043
      2          9           0       -3.223179    0.029211   -1.080738
      3          9           0       -3.222941    0.028481    1.081043
      4          9           0       -2.358147   -1.636088   -0.000506
      5          6           0       -1.175278    0.404627    0.000060
      6          6           0        0.010953   -0.261236   -0.000181
      7          6           0        1.224513    0.512303   -0.000074
      8          8           0        1.264545    1.741593   -0.000746
      9          6           0        2.552124   -0.281314    0.000001
     10          9           0        2.609603   -1.066250    1.084920
     11          9           0        2.605893   -1.073230   -1.080028
     12          9           0        3.601024    0.523500   -0.004367
     13          1           0        0.036179   -1.339628   -0.000462
     14          8           0       -1.305333    1.711924    0.000519
     15          1           0       -0.379580    2.083976    0.000783
 ---------------------------------------------------------------------

 SCF Done:  E(RHF) =  -937.305258745     A.U. after    7 cycles

 The electronic state is 1-A.
 Alpha  occ. eigenvalues --  -26.36765 -26.36547 -26.36544 -26.36329 -26.36327
 Alpha  occ. eigenvalues --  -26.36210 -20.64198 -20.61054 -11.54560 -11.53949
 Alpha  occ. eigenvalues --  -11.40363 -11.39759 -11.27891  -1.76186  -1.76030
 Alpha  occ. eigenvalues --   -1.66724  -1.66517  -1.66393  -1.66336  -1.48580
 Alpha  occ. eigenvalues --   -1.44343  -1.13633  -1.06186  -1.01771  -0.93313
 Alpha  occ. eigenvalues --   -0.90429  -0.85855  -0.85466  -0.85354  -0.85338
 Alpha  occ. eigenvalues --   -0.81512  -0.79448  -0.74460  -0.74081  -0.73869
 Alpha  occ. eigenvalues --   -0.73860  -0.73546  -0.70724  -0.69564  -0.69432
 Alpha  occ. eigenvalues --   -0.69388  -0.68877  -0.67784  -0.67757  -0.64635
 Alpha  occ. eigenvalues --   -0.64457  -0.63002  -0.59876  -0.58782  -0.48932
 Alpha  occ. eigenvalues --   -0.41127
 Alpha virt. eigenvalues --    0.02806   0.03788   0.04155   0.04440   0.04855
 Alpha virt. eigenvalues --    0.05738   0.06282   0.06499   0.07346   0.07615
 Alpha virt. eigenvalues --    0.08181   0.08701   0.09596   0.10176   0.10623

 Mulliken charges:
               1
     1  C    0.730540
     2  F   -0.263852
     3  F   -0.263847
     4  F   -0.291022
     5  C    0.424999
     6  C   -0.345443
     7  C    0.535200
     8  O   -0.554929
     9  C    0.662364
    10  F   -0.258055
    11  F   -0.257943
    12  F   -0.256323
    13  H    0.243131
    14  O   -0.555408
    15  H    0.450588
 Sum of Mulliken charges =  -0.00000

 Dipole moment (field-independent basis, Debye):
    X=             -0.0957    Y=             -0.9368    Z=              0.0006  Tot=              0.9416
 Quadrupole moment (field-independent basis, Debye-Ang):
   XX=            -79.3951   YY=            -72.6281   ZZ=            -70.5054
   XY=             -0.6857   XZ=              0.0006   YZ=              0.0042

    1 imaginary frequencies ignored.
 Normal termination of Gaussian 16 at Wed Nov 24 09:02:59 2021.
