 Gaussian 16, Revision A.03,
 Gaussian 16:  ES64L-G16RevA.03 25-Dec-2016

 ----------------------------------------------------------------------
 # opt=(tight) freq B3LYP/6-311++G(3df,3pd) nosymm int=ultrafinegrid sc
 f=(tight,ssd,noincfock,xqc,fdiag,novaracc)
 ----------------------------------------------------------------------

 -------------------
 CAS 43044-69-5
 -------------------
 Symbolic Z-matrix:
 Charge =  0 Multiplicity = 1

 SCF Done:  E(RB3LYP) =  -851.860681857     A.U. after   14 cycles
 SCF Done:  E(RB3LYP) =  -851.863414202     A.U. after   12 cycles
 SCF Done:  E(RB3LYP) =  -851.863102954     A.U. after   13 cycles
 SCF Done:  E(RB3LYP) =  -851.863791804     A.U. after   12 cycles
 SCF Done:  E(RB3LYP) =  -851.864383260     A.U. after   11 cycles
 SCF Done:  E(RB3LYP) =  -851.864354901     A.U. after   11 cycles
 SCF Done:  E(RB3LYP) =  -851.864377071     A.U. after   11 cycles
 SCF Done:  E(RB3LYP) =  -851.864399954     A.U. after   11 cycles
 SCF Done:  E(RB3LYP) =  -851.864402091     A.U. after   11 cycles
 SCF Done:  E(RB3LYP) =  -851.864403097     A.U. after    9 cycles
 SCF Done:  E(RB3LYP) =  -851.864403267     A.U. after    9 cycles
 SCF Done:  E(RB3LYP) =  -851.864403326     A.U. after    9 cycles
 SCF Done:  E(RB3LYP) =  -851.864403341     A.U. after    9 cycles
 SCF Done:  E(RB3LYP) =  -851.864403344     A.U. after    7 cycles
 SCF Done:  E(RB3LYP) =  -851.864403345     A.U. after    7 cycles
 SCF Done:  E(RB3LYP) =  -851.864403344     A.U. after    7 cycles
 SCF Done:  E(RB3LYP) =  -851.864403345     A.U. after    7 cycles
 Optimization completed.
    -- Stationary point found.
 Normal termination of Gaussian 16 at Sat Jul 17 22:59:50 2021.

 ----------------------------------------------------------------------
 #N Geom=AllCheck Guess=TCheck SCRF=Check GenChk RB3LYP/6-311++G(3df,3p
 d) Freq
 ----------------------------------------------------------------------

 Structure from the checkpoint file:  "/home/artemiy/opt/gaussian/scr/Gau-15840.chk"
 -------------------
 Title Card Required
 -------------------
 Charge =  0 Multiplicity = 1

                          Input orientation:
 ---------------------------------------------------------------------
 Center     Atomic      Atomic             Coordinates (Angstroms)
 Number     Number       Type             X           Y           Z
 ---------------------------------------------------------------------
      1          6           0       -0.049760   -0.010461    0.394557
      2          6           0       -1.361287    0.371442   -0.324549
      3          6           0       -2.022147   -0.487602   -1.201448
      4          6           0       -3.253450   -0.146772   -1.756335
      5          6           0       -3.856615    1.061670   -1.440716
      6          6           0       -3.217128    1.925694   -0.557409
      7          6           0       -1.990335    1.581714   -0.007970
      8          1           0       -1.511759    2.270206    0.674842
      9          1           0       -3.674072    2.870806   -0.295017
     10          1           0       -4.811947    1.327947   -1.872458
     11          1           0       -3.739127   -0.835756   -2.434748
     12          1           0       -1.581582   -1.439194   -1.457244
     13          6           0        0.992990    1.137926    0.326774
     14          6           0        0.991278    2.079910   -0.705111
     15          6           0        1.971657    3.062101   -0.792390
     16          6           0        2.985802    3.128771    0.153330
     17          6           0        3.009351    2.194931    1.181497
     18          6           0        2.029759    1.212864    1.261873
     19          1           0        2.092326    0.492497    2.063756
     20          1           0        3.795328    2.224434    1.924601
     21          1           0        3.747529    3.893943    0.089159
     22          1           0        1.937277    3.776802   -1.604162
     23          1           0        0.211423    2.057829   -1.451713
     24          6           0       -0.432908   -0.269898    1.888727
     25          1           0       -0.649251    0.700199    2.339901
     26          1           0        0.435436   -0.654067    2.423335
     27          6           0       -1.623468   -1.199086    2.153225
     28          1           0       -2.534878   -0.744115    1.765495
     29          1           0       -1.505168   -2.139478    1.612789
     30          6           0       -1.797142   -1.486571    3.645128
     31          1           0       -1.940432   -0.563908    4.211137
     32          1           0       -0.922969   -1.993058    4.059918
     33          1           0       -2.664139   -2.122878    3.825582
     34          6           0        0.645319   -1.230181   -0.258156
     35          6           0        1.025549   -1.169323   -1.604500
     36          6           0        1.694388   -2.216510   -2.219785
     37          6           0        2.013472   -3.364069   -1.500624
     38          6           0        1.654462   -3.440288   -0.163969
     39          6           0        0.979728   -2.385577    0.447540
     40          1           0        0.722764   -2.485168    1.490363
     41          1           0        1.897187   -4.321545    0.415099
     42          1           0        2.537763   -4.181814   -1.976271
     43          1           0        1.972293   -2.133325   -3.262181
     44          1           0        0.800338   -0.284471   -2.182337
 ---------------------------------------------------------------------

 SCF Done:  E(RB3LYP) =  -851.864403345     A.U. after    1 cycles

 Alpha  occ. eigenvalues --  -10.20737 -10.18598 -10.18563 -10.18479 -10.17504
 Alpha  occ. eigenvalues --  -10.17453 -10.17431 -10.17395 -10.17351 -10.17347
 Alpha  occ. eigenvalues --  -10.17343 -10.17326 -10.17298 -10.17246 -10.17194
 Alpha  occ. eigenvalues --  -10.17181 -10.17129 -10.17098 -10.17091 -10.17053
 Alpha  occ. eigenvalues --  -10.16307 -10.15852  -0.88132  -0.85740  -0.85629
 Alpha  occ. eigenvalues --   -0.81777  -0.77656  -0.75312  -0.75142  -0.74818
 Alpha  occ. eigenvalues --   -0.74497  -0.74226  -0.70467  -0.65488  -0.61655
 Alpha  occ. eigenvalues --   -0.61485  -0.60573  -0.60003  -0.59556  -0.58819
 Alpha  occ. eigenvalues --   -0.55981  -0.52793  -0.52155  -0.50784  -0.47363
 Alpha  occ. eigenvalues --   -0.46671  -0.46425  -0.46071  -0.45153  -0.44742
 Alpha  occ. eigenvalues --   -0.44671  -0.43387  -0.42674  -0.42372  -0.42167
 Alpha  occ. eigenvalues --   -0.41782  -0.41331  -0.39474  -0.38016  -0.37395
 Alpha  occ. eigenvalues --   -0.37186  -0.36728  -0.36542  -0.35520  -0.35228
 Alpha  occ. eigenvalues --   -0.34891  -0.34367  -0.34014  -0.32951  -0.32195
 Alpha  occ. eigenvalues --   -0.31977  -0.26696  -0.26122  -0.25995  -0.25339
 Alpha  occ. eigenvalues --   -0.24745  -0.23932
 Alpha virt. eigenvalues --   -0.02814  -0.02325  -0.02065  -0.01532  -0.01142
 Alpha virt. eigenvalues --   -0.00320  -0.00174  -0.00101   0.00044   0.00179
 Alpha virt. eigenvalues --    0.01293   0.01412   0.01730   0.02084   0.02600

 Mulliken charges:
               1
     1  C    1.424112
     2  C    0.892894
     3  C   -0.036512
     4  C   -0.628612
     5  C   -0.540667
     6  C   -0.438216
     7  C    0.023322
     8  H    0.014510
     9  H    0.046053
    10  H    0.030756
    11  H    0.044869
    12  H    0.043821
    13  C    0.926501
    14  C    0.091316
    15  C   -0.418004
    16  C   -0.521641
    17  C   -0.606141
    18  C   -0.071471
    19  H   -0.027129
    20  H    0.052137
    21  H    0.025143
    22  H    0.042794
    23  H    0.019385
    24  C    0.380320
    25  H   -0.024382
    26  H   -0.022292
    27  C   -0.190962
    28  H    0.060249
    29  H    0.009941
    30  C   -0.303154
    31  H    0.009469
    32  H    0.005490
    33  H    0.029822
    34  C    0.806036
    35  C    0.000613
    36  C   -0.166151
    37  C   -0.531865
    38  C   -0.546803
    39  C   -0.068935
    40  H    0.030897
    41  H    0.052564
    42  H    0.027573
    43  H    0.049347
    44  H    0.003002
 Sum of Mulliken charges =  -0.00000

 Dipole moment (field-independent basis, Debye):
    X=             -0.1528    Y=             -0.0902    Z=              0.1619  Tot=              0.2403
 Quadrupole moment (field-independent basis, Debye-Ang):
   XX=           -130.5624   YY=           -127.4040   ZZ=           -128.2737
   XY=             -1.4392   XZ=              2.2409   YZ=             -0.8878

  Exact polarizability: 261.929  -4.976 269.050  12.340  -0.714 235.158
 Approx polarizability: 383.822 -13.454 423.091  31.204  -5.209 394.807

                      1                      2                      3
                      A                      A                      A
 Frequencies --     27.0643                47.3412                55.6213
 Red. masses --      3.6430                 3.9436                 3.7594
 Frc consts  --      0.0016                 0.0052                 0.0069
 IR Inten    --      0.0018                 0.0306                 0.0178

                      4                      5                      6
                      A                      A                      A
 Frequencies --     63.5249                69.5864                81.3271
 Red. masses --      3.2279                 3.9423                 4.2543
 Frc consts  --      0.0077                 0.0112                 0.0166
 IR Inten    --      0.0249                 0.0147                 0.0960

                      7                      8                      9
                      A                      A                      A
 Frequencies --     96.4226               111.5511               143.9054
 Red. masses --      3.9666                 3.6473                 1.8969
 Frc consts  --      0.0217                 0.0267                 0.0231
 IR Inten    --      0.1946                 0.0734                 0.0721

                     10                     11                     12
                      A                      A                      A
 Frequencies --    217.1417               233.7916               247.3126
 Red. masses --      2.6228                 3.1234                 1.8223
 Frc consts  --      0.0729                 0.1006                 0.0657
 IR Inten    --      0.3520                 0.2043                 0.1327

                     13                     14                     15
                      A                      A                      A
 Frequencies --    262.5419               279.4989               282.0343
 Red. masses --      3.3877                 4.8512                 4.2421
 Frc consts  --      0.1376                 0.2233                 0.1988
 IR Inten    --      0.1521                 0.1216                 0.3544

                     16                     17                     18
                      A                      A                      A
 Frequencies --    299.6396               310.6922               329.9978
 Red. masses --      4.0518                 3.5950                 3.4830
 Frc consts  --      0.2143                 0.2045                 0.2235
 IR Inten    --      0.6397                 0.1311                 0.5791

                     19                     20                     21
                      A                      A                      A
 Frequencies --    352.5594               413.4796               421.2435
 Red. masses --      2.6869                 2.8612                 2.8843
 Frc consts  --      0.1968                 0.2882                 0.3015
 IR Inten    --      0.1285                 0.0263                 0.2155

                     22                     23                     24
                      A                      A                      A
 Frequencies --    425.8155               485.7304               507.7448
 Red. masses --      2.9126                 3.5272                 3.6155
 Frc consts  --      0.3111                 0.4903                 0.5492
 IR Inten    --      0.0539                 2.1281                 4.8868

                     25                     26                     27
                      A                      A                      A
 Frequencies --    540.5482               611.3082               629.4511
 Red. masses --      3.3723                 3.5232                 4.4343
 Frc consts  --      0.5806                 0.7757                 1.0351
 IR Inten    --      3.4647                10.8492                 9.3400

                     28                     29                     30
                      A                      A                      A
 Frequencies --    634.5634               636.8433               637.5857
 Red. masses --      6.3106                 6.3498                 6.1311
 Frc consts  --      1.4972                 1.5173                 1.4685
 IR Inten    --      0.2188                 0.1132                 1.9832

                     31                     32                     33
                      A                      A                      A
 Frequencies --    653.7852               710.1111               713.0982
 Red. masses --      5.2312                 4.5006                 1.8709
 Frc consts  --      1.3174                 1.3371                 0.5605
 IR Inten    --     11.3196                 1.3273                23.3004

                     34                     35                     36
                      A                      A                      A
 Frequencies --    719.4912               723.3829               748.1261
 Red. masses --      1.5587                 1.6148                 1.2085
 Frc consts  --      0.4754                 0.4978                 0.3985
 IR Inten    --     74.0068                18.2032                15.1035

                     37                     38                     39
                      A                      A                      A
 Frequencies --    765.0156               778.9943               791.1412
 Red. masses --      1.8811                 2.4477                 2.0101
 Frc consts  --      0.6486                 0.8751                 0.7413
 IR Inten    --     28.2622                21.1192                10.4869

                     40                     41                     42
                      A                      A                      A
 Frequencies --    837.0527               860.5195               864.4884
 Red. masses --      1.8201                 1.2527                 1.2544
 Frc consts  --      0.7514                 0.5465                 0.5523
 IR Inten    --      1.8329                 0.0024                 0.3139

                     43                     44                     45
                      A                      A                      A
 Frequencies --    870.1837               881.8286               921.9513
 Red. masses --      1.2492                 2.9338                 1.6545
 Frc consts  --      0.5573                 1.3442                 0.8286
 IR Inten    --      0.1449                 1.6365                 1.1496

                     46                     47                     48
                      A                      A                      A
 Frequencies --    931.0527               944.2879               953.0995
 Red. masses --      1.5373                 1.5042                 1.6162
 Frc consts  --      0.7852                 0.7903                 0.8650
 IR Inten    --      4.0461                 0.3498                 0.6095

                     49                     50                     51
                      A                      A                      A
 Frequencies --    960.5331               998.2068              1001.0373
 Red. masses --      1.9425                 1.3806                 1.3708
 Frc consts  --      1.0559                 0.8105                 0.8093
 IR Inten    --      0.9624                 0.0204                 0.2784

                     52                     53                     54
                      A                      A                      A
 Frequencies --   1004.4008              1012.3802              1013.8521
 Red. masses --      1.3790                 1.8427                 1.4302
 Frc consts  --      0.8197                 1.1127                 0.8661
 IR Inten    --      0.2212                 0.0901                 0.1022

                     55                     56                     57
                      A                      A                      A
 Frequencies --   1014.8050              1015.7669              1017.0442
 Red. masses --      2.4805                 1.9699                 2.9600
 Frc consts  --      1.5051                 1.1975                 1.8039
 IR Inten    --      0.2152                 0.5269                 0.4010

                     58                     59                     60
                      A                      A                      A
 Frequencies --   1018.1188              1021.0938              1049.6633
 Red. masses --      4.2561                 3.0906                 2.8497
 Frc consts  --      2.5993                 1.8986                 1.8499
 IR Inten    --      0.5690                 0.3024                 3.7261

                     61                     62                     63
                      A                      A                      A
 Frequencies --   1055.1145              1056.4255              1061.7770
 Red. masses --      2.3374                 2.3879                 2.4409
 Frc consts  --      1.5331                 1.5702                 1.6213
 IR Inten    --     10.2014                 6.9285                 1.2040

                     64                     65                     66
                      A                      A                      A
 Frequencies --   1105.9998              1111.0131              1114.9882
 Red. masses --      1.6416                 1.6304                 1.8789
 Frc consts  --      1.1831                 1.1857                 1.3762
 IR Inten    --      2.3404                 0.2684                 5.8069

                     67                     68                     69
                      A                      A                      A
 Frequencies --   1117.6267              1127.2006              1173.2110
 Red. masses --      2.0272                 1.7871                 3.2591
 Frc consts  --      1.4919                 1.3378                 2.6430
 IR Inten    --      3.4260                 0.7543                 0.5637

                     70                     71                     72
                      A                      A                      A
 Frequencies --   1182.9807              1184.3206              1184.7478
 Red. masses --      1.7624                 1.1731                 1.1135
 Frc consts  --      1.4532                 0.9694                 0.9209
 IR Inten    --      0.1895                 0.0362                 0.0195

                     73                     74                     75
                      A                      A                      A
 Frequencies --   1186.4818              1211.3942              1215.0861
 Red. masses --      1.5653                 1.7694                 1.1552
 Frc consts  --      1.2983                 1.5299                 1.0049
 IR Inten    --      0.0694                 0.6821                 3.2310

                     76                     77                     78
                      A                      A                      A
 Frequencies --   1218.1061              1221.0876              1282.0960
 Red. masses --      1.2570                 1.3907                 1.4426
 Frc consts  --      1.0989                 1.2217                 1.3971
 IR Inten    --      1.3621                 5.6387                 1.8609

                     79                     80                     81
                      A                      A                      A
 Frequencies --   1305.9668              1321.7620              1322.5538
 Red. masses --      3.4846                 5.3845                 4.1752
 Frc consts  --      3.5016                 5.5424                 4.3029
 IR Inten    --      0.4807                 0.7023                 0.8416

                     82                     83                     84
                      A                      A                      A
 Frequencies --   1328.2061              1345.4668              1362.5683
 Red. masses --      1.4699                 1.1846                 1.4259
 Frc consts  --      1.5278                 1.2635                 1.5598
 IR Inten    --      2.2300                 2.4932                 0.2049

                     85                     86                     87
                      A                      A                      A
 Frequencies --   1366.1818              1369.0193              1393.4570
 Red. masses --      1.3671                 1.3713                 1.4323
 Frc consts  --      1.5034                 1.5143                 1.6386
 IR Inten    --      0.2909                 0.1723                 1.9053

                     88                     89                     90
                      A                      A                      A
 Frequencies --   1415.3027              1471.8399              1478.9772
 Red. masses --      1.2237                 2.1198                 2.1888
 Frc consts  --      1.4442                 2.7056                 2.8208
 IR Inten    --      2.3319                 3.0011                 7.1519

                     91                     92                     93
                      A                      A                      A
 Frequencies --   1480.1284              1496.3764              1497.8924
 Red. masses --      2.1941                 1.0571                 1.0716
 Frc consts  --      2.8320                 1.3946                 1.4166
 IR Inten    --      4.0174                 9.2458                 5.1613

                     94                     95                     96
                      A                      A                      A
 Frequencies --   1501.2170              1516.1643              1528.1982
 Red. masses --      1.0510                 1.0961                 2.0186
 Frc consts  --      1.3955                 1.4845                 2.7775
 IR Inten    --      3.4886                 5.2050                19.6795

                     97                     98                     99
                      A                      A                      A
 Frequencies --   1529.3736              1532.5325              1614.6371
 Red. masses --      2.0779                 2.0533                 5.0589
 Frc consts  --      2.8635                 2.8414                 7.7706
 IR Inten    --     16.4866                12.3344                 0.3960

                    100                    101                    102
                      A                      A                      A
 Frequencies --   1619.0927              1620.1215              1636.2390
 Red. masses --      5.2424                 5.3665                 5.3967
 Frc consts  --      8.0969                 8.2992                 8.5127
 IR Inten    --      1.0883                 0.6760                13.4787

                    103                    104                    105
                      A                      A                      A
 Frequencies --   1638.0351              1642.2190              3017.4805
 Red. masses --      5.3483                 5.4198                 1.0359
 Frc consts  --      8.4550                 8.6118                 5.5573
 IR Inten    --     13.4205                 1.5322                34.6027

                    106                    107                    108
                      A                      A                      A
 Frequencies --   3036.8229              3047.4757              3061.3018
 Red. masses --      1.0616                 1.0620                 1.0982
 Frc consts  --      5.7685                 5.8109                 6.0638
 IR Inten    --      2.7101                31.6139                 6.4745

                    109                    110                    111
                      A                      A                      A
 Frequencies --   3073.1965              3087.1655              3093.4549
 Red. masses --      1.1008                 1.0999                 1.1035
 Frc consts  --      6.1255                 6.1761                 6.2219
 IR Inten    --      1.8661                36.2741                64.8814

                    112                    113                    114
                      A                      A                      A
 Frequencies --   3163.1837              3163.4685              3163.9921
 Red. masses --      1.0849                 1.0849                 1.0849
 Frc consts  --      6.3960                 6.3967                 6.3993
 IR Inten    --      1.4235                 1.0909                 0.7647

                    115                    116                    117
                      A                      A                      A
 Frequencies --   3171.7714              3172.5058              3173.0687
 Red. masses --      1.0885                 1.0891                 1.0892
 Frc consts  --      6.4517                 6.4584                 6.4612
 IR Inten    --      6.1317                 6.5211                14.0838

                    118                    119                    120
                      A                      A                      A
 Frequencies --   3183.5292              3187.4690              3187.9552
 Red. masses --      1.0920                 1.0935                 1.0938
 Frc consts  --      6.5205                 6.5456                 6.5493
 IR Inten    --     25.5031                37.0709                19.5837

                    121                    122                    123
                      A                      A                      A
 Frequencies --   3191.5500              3196.4289              3199.6710
 Red. masses --      1.0963                 1.0942                 1.0919
 Frc consts  --      6.5795                 6.5868                 6.5866
 IR Inten    --     15.4781                 3.9135                13.7565

                    124                    125                    126
                      A                      A                      A
 Frequencies --   3202.3544              3206.3604              3213.1779
 Red. masses --      1.0929                 1.0920                 1.0907
 Frc consts  --      6.6032                 6.6143                 6.6347
 IR Inten    --      5.2457                 4.1213                 8.2033

 - Thermochemistry -
 -------------------
 Temperature   298.150 Kelvin.  Pressure   1.00000 Atm.
 Atom     1 has atomic number  6 and mass  12.00000

 Molecular mass:   286.17215 amu.
 Principal axes and moments of inertia in atomic units:
                           1         2         3
     Eigenvalues --  6064.314366639.148108216.33245
           X            0.99981   0.01850  -0.00588
           Y           -0.01868   0.99933  -0.03147
           Z            0.00529   0.03157   0.99949
 This molecule is an asymmetric top.
 Rotational symmetry number  1.
 Warning -- assumption of classical behavior for rotation
           may cause significant error
 Rotational temperatures (Kelvin)      0.01428     0.01305     0.01054
 Rotational constants (GHZ):           0.29760     0.27183     0.21965
 Zero-point vibrational energy     984448.6 (Joules/Mol)
                                  235.28886 (Kcal/Mol)
 Warning -- explicit consideration of  26 degrees of freedom as
           vibrations may cause significant error
 Vibrational temperatures:     38.94    68.11    80.03    91.40   100.12
          (Kelvin)            117.01   138.73   160.50   207.05   312.42
                              336.37   355.83   377.74   402.14   405.78
                              431.11   447.02   474.79   507.25   594.90
                              606.08   612.65   698.86   730.53   777.73
                              879.54   905.64   913.00   916.28   917.34
                              940.65  1021.69  1025.99  1035.19  1040.79
                             1076.39  1100.69  1120.80  1138.28  1204.33
                             1238.10  1243.81  1252.00  1268.75  1326.48
                             1339.58  1358.62  1371.30  1381.99  1436.20
                             1440.27  1445.11  1456.59  1458.71  1460.08
                             1461.46  1463.30  1464.85  1469.13  1510.23
                             1518.07  1519.96  1527.66  1591.29  1598.50
                             1604.22  1608.02  1621.79  1687.99  1702.05
                             1703.97  1704.59  1707.08  1742.93  1748.24
                             1752.58  1756.87  1844.65  1878.99  1901.72
                             1902.86  1910.99  1935.83  1960.43  1965.63
                             1969.71  2004.87  2036.30  2117.65  2127.92
                             2129.57  2152.95  2155.13  2159.92  2181.42
                             2198.74  2200.43  2204.97  2323.10  2329.51
                             2330.99  2354.18  2356.77  2362.79  4341.48
                             4369.31  4384.64  4404.53  4421.64  4441.74
                             4450.79  4551.12  4551.53  4552.28  4563.47
                             4564.53  4565.34  4580.39  4586.06  4586.76
                             4591.93  4598.95  4603.61  4607.47  4613.24
                             4623.05

 Zero-point correction=                           0.374957 (Hartree/Particle)
 Thermal correction to Energy=                    0.393880
 Thermal correction to Enthalpy=                  0.394824
 Thermal correction to Gibbs Free Energy=         0.327053
 Sum of electronic and zero-point Energies=           -851.489447
 Sum of electronic and thermal Energies=              -851.470524
 Sum of electronic and thermal Enthalpies=            -851.469579
 Sum of electronic and thermal Free Energies=         -851.537350

                     E (Thermal)             CV                S
                      KCal/Mol        Cal/Mol-Kelvin    Cal/Mol-Kelvin
 Total                  247.163             75.910            142.635
 Electronic               0.000              0.000              0.000
 Translational            0.889              2.981             42.852
 Rotational               0.889              2.981             34.158
 Vibrational            245.386             69.949             65.625
 Vibration     1          0.593              1.984              6.034
 Vibration     2          0.595              1.979              4.925
 Vibration     3          0.596              1.975              4.607
 Vibration     4          0.597              1.972              4.345
 Vibration     5          0.598              1.969              4.165
 Vibration     6          0.600              1.962              3.859
 Vibration     7          0.603              1.952              3.525
 Vibration     8          0.607              1.940              3.242
 Vibration     9          0.616              1.909              2.751
 Vibration    10          0.646              1.815              1.983
 Vibration    11          0.654              1.789              1.850
 Vibration    12          0.661              1.767              1.750
 Vibration    13          0.670              1.741              1.645
 Vibration    14          0.680              1.711              1.537
 Vibration    15          0.681              1.707              1.521
 Vibration    16          0.692              1.674              1.419
 Vibration    17          0.700              1.653              1.359
 Vibration    18          0.713              1.616              1.260
 Vibration    19          0.729              1.570              1.155
 Vibration    20          0.777              1.441              0.914
 Vibration    21          0.784              1.424              0.888
 Vibration    22          0.788              1.414              0.872
 Vibration    23          0.842              1.282              0.695
 Vibration    24          0.863              1.233              0.639
 Vibration    25          0.896              1.160              0.564
 Vibration    26          0.970              1.008              0.431

 Optimization completed.
    -- Stationary point found.
 Normal termination of Gaussian 16 at Mon Jul 19 16:20:33 2021.
