 Gaussian 16, Revision A.03,
 Gaussian 16:  ES64L-G16RevA.03 25-Dec-2016

 -------------
 # g4 geom=gic
 -------------

 -------------------
 CAS 1522-22-1
 -------------------
 Symbolic Z-matrix:
 Charge =  0 Multiplicity = 1

 SCF Done:  E(RB3LYP) =  -941.272783591     A.U. after   14 cycles
 SCF Done:  E(RB3LYP) =  -941.274046653     A.U. after   11 cycles
 SCF Done:  E(RB3LYP) =  -941.274085405     A.U. after   10 cycles
 SCF Done:  E(RB3LYP) =  -941.274126915     A.U. after   11 cycles
 SCF Done:  E(RB3LYP) =  -941.274132746     A.U. after    8 cycles
 SCF Done:  E(RB3LYP) =  -941.274134278     A.U. after    8 cycles
 Optimization completed.
    -- Stationary point found.
 Normal termination of Gaussian 16 at Thu Nov 25 08:21:42 2021.

 ----------------------------------------------------------
 #N Geom=AllCheck Guess=TCheck SCRF=Check B3LYP/GTBas3 Freq
 ----------------------------------------------------------

 Structure from the checkpoint file:  "/home/artemiy/opt/gaussian/scr/Gau-1799.chk"
 -------------------
 Title Card Required
 -------------------
 Charge =  0 Multiplicity = 1

 SCF Done:  E(RB3LYP) =  -941.274134278     A.U. after    1 cycles

  Exact polarizability:  90.829  -1.323  63.672  -0.006   0.003  43.839
 Approx polarizability: 128.804  -3.507 107.452  -0.008   0.006  69.117

 ******    1 imaginary frequencies (negative Signs) ******

                      1                      2                      3
                      A                      A                      A
 Frequencies --    -15.8369                31.5238                89.6436
 Red. masses --     15.4672                16.3461                 7.5002
 Frc consts  --      0.0023                 0.0096                 0.0355
 IR Inten    --      0.2110                 0.0350                 1.7978

                      4                      5                      6
                      A                      A                      A
 Frequencies --    102.2872               120.5710               215.2791
 Red. masses --     14.5262                13.7207                13.5875
 Frc consts  --      0.0895                 0.1175                 0.3710
 IR Inten    --      0.9495                 1.5507                 2.8713

                      7                      8                      9
                      A                      A                      A
 Frequencies --    241.5933               254.3531               303.8143
 Red. masses --     11.9845                15.7862                10.7379
 Frc consts  --      0.4121                 0.6017                 0.5840
 IR Inten    --      1.7978                 0.6575                 0.0216

                     10                     11                     12
                      A                      A                      A
 Frequencies --    318.4398               360.1896               433.2115
 Red. masses --      8.8652                14.2899                11.6916
 Frc consts  --      0.5297                 1.0923                 1.2928
 IR Inten    --      4.3670                 1.1211                 0.2506

                     13                     14                     15
                      A                      A                      A
 Frequencies --    439.2337               512.3619               526.7277
 Red. masses --     12.8034                16.9630                15.1848
 Frc consts  --      1.4553                 2.6237                 2.4822
 IR Inten    --      0.4635                 0.0398                 3.4304

                     16                     17                     18
                      A                      A                      A
 Frequencies --    574.3604               587.8047               666.0291
 Red. masses --     15.4452                14.1576                11.1877
 Frc consts  --      3.0020                 2.8821                 2.9240
 IR Inten    --      8.6531                18.7979                62.7194

                     19                     20                     21
                      A                      A                      A
 Frequencies --    730.8963               746.6212               776.6012
 Red. masses --      8.5176                15.1752                 2.2429
 Frc consts  --      2.6809                 4.9841                 0.7970
 IR Inten    --      1.2217                 8.6351                 3.4551

                     22                     23                     24
                      A                      A                      A
 Frequencies --    826.5719               831.3225               909.3698
 Red. masses --     12.8085                 1.8459                 1.1523
 Frc consts  --      5.1560                 0.7516                 0.5614
 IR Inten    --      5.0862                34.4804                68.2352

                     25                     26                     27
                      A                      A                      A
 Frequencies --    936.6106              1114.4050              1133.6992
 Red. masses --      6.1534                 4.0019                 2.4982
 Frc consts  --      3.1804                 2.9282                 1.8918
 IR Inten    --     10.0240               168.1896                51.5322

                     28                     29                     30
                      A                      A                      A
 Frequencies --   1184.9047              1210.4571              1235.6034
 Red. masses --     12.9922                12.7794                12.1608
 Frc consts  --     10.7473                11.0322                10.9388
 IR Inten    --    234.2293               237.4671               332.4108

                     31                     32                     33
                      A                      A                      A
 Frequencies --   1241.4185              1282.1656              1344.6099
 Red. masses --      7.2741                 4.3078                 4.0142
 Frc consts  --      6.6049                 4.1724                 4.2761
 IR Inten    --    129.8499               564.1745                16.4186

                     34                     35                     36
                      A                      A                      A
 Frequencies --   1423.0104              1479.3832              1664.5810
 Red. masses --      2.2397                 4.3986                 3.3581
 Frc consts  --      2.6721                 5.6719                 5.4822
 IR Inten    --    102.7987                77.7368               251.6866

                     37                     38                     39
                      A                      A                      A
 Frequencies --   1731.7101              3172.6755              3261.5301
 Red. masses --     10.4514                 1.0698                 1.0919
 Frc consts  --     18.4661                 6.3447                 6.8433
 IR Inten    --    113.6414               224.7274                 3.3558

 - Thermochemistry -
 -------------------
 Temperature   298.150 Kelvin.  Pressure   1.00000 Atm.
 Atom     1 has atomic number  6 and mass  12.00000

 Molecular mass:   207.99590 amu.
 Principal axes and moments of inertia in atomic units:
                           1         2         3
     Eigenvalues --  1064.258134769.934045199.07802
           X            1.00000  -0.00079   0.00012
           Y            0.00079   1.00000  -0.00011
           Z           -0.00012   0.00011   1.00000
 This molecule is an asymmetric top.
 Rotational symmetry number  1.
 Warning -- assumption of classical behavior for rotation
           may cause significant error
 Rotational temperatures (Kelvin)      0.08138     0.01816     0.01666
 Rotational constants (GHZ):           1.69577     0.37836     0.34713
    1 imaginary frequencies ignored.
 Zero-point vibrational energy     203458.3 (Joules/Mol)
                                   48.62770 (Kcal/Mol)
 Warning -- explicit consideration of  16 degrees of freedom as
           vibrations may cause significant error
 Vibrational temperatures:     45.36   128.98   147.17   173.47   309.74
          (Kelvin)            347.60   365.96   437.12   458.16   518.23
                              623.29   631.96   737.17   757.84   826.38
                              845.72   958.27  1051.60  1074.22  1117.36
                             1189.25  1196.09  1308.38  1347.57  1603.38
                             1631.14  1704.81  1741.58  1777.76  1786.12
                             1844.75  1934.59  2047.39  2128.50  2394.96
                             2491.54  4564.77  4692.61

 Zero-point correction=                           0.077493 (Hartree/Particle)
 Thermal correction to Energy=                    0.088167
 Thermal correction to Enthalpy=                  0.089112
 Thermal correction to Gibbs Free Energy=         0.039353
 Sum of electronic and zero-point Energies=           -941.196641
 Sum of electronic and thermal Energies=              -941.185967
 Sum of electronic and thermal Enthalpies=            -941.185023
 Sum of electronic and thermal Free Energies=         -941.234781

                     E (Thermal)             CV                S
                      KCal/Mol        Cal/Mol-Kelvin    Cal/Mol-Kelvin
 Total                   55.326             38.410            104.726
 Electronic               0.000              0.000              0.000
 Translational            0.889              2.981             41.901
 Rotational               0.889              2.981             31.646
 Vibrational             53.548             32.449             31.179
 Vibration     1          0.594              1.983              5.731
 Vibration     2          0.602              1.957              3.668
 Vibration     3          0.604              1.947              3.410
 Vibration     4          0.609              1.932              3.091
 Vibration     5          0.645              1.818              1.998
 Vibration     6          0.658              1.777              1.791
 Vibration     7          0.665              1.755              1.700
 Vibration     8          0.695              1.666              1.396
 Vibration     9          0.705              1.638              1.318
 Vibration    10          0.735              1.554              1.121
 Vibration    11          0.794              1.398              0.848
 Vibration    12          0.799              1.385              0.829
 Vibration    13          0.867              1.223              0.628
 Vibration    14          0.882              1.191              0.595
 Vibration    15          0.931              1.087              0.496
 Vibration    16          0.945              1.058              0.471

 Optimization completed.
    -- Stationary point found.
 Normal termination of Gaussian 16 at Thu Nov 25 08:34:22 2021.

 -----------------------------------------------------------------
 #N Geom=AllCheck Guess=TCheck SCRF=Check CCSD(T,E4T,FrzG4)/GTBas1
 -----------------------------------------------------------------

 Structure from the checkpoint file:  "/home/artemiy/opt/gaussian/scr/Gau-1799.chk"
 -------------------
 Title Card Required
 -------------------
 Charge =  0 Multiplicity = 1

 SCF Done:  E(RHF) =  -936.855735688     A.U. after   14 cycles
 E2 =    -0.2004992868D+01 EUMP2 =    -0.93886072855539D+03
 CCSD(T)= -0.93894542466D+03
 =-938.8943139\CCSD=-938.8845616\CCSD(T)=-938.9454247\RMSD=3.067e-09\PG
 Normal termination of Gaussian 16 at Thu Nov 25 10:00:58 2021.

 ---------------------------------------------------------
 #N Geom=AllCheck Guess=TCheck SCRF=Check MP4=FrzG4/GTBas2
 ---------------------------------------------------------

 Structure from the checkpoint file:  "/home/artemiy/opt/gaussian/scr/Gau-1799.chk"
 -------------------
 Title Card Required
 -------------------
 Charge =  0 Multiplicity = 1

 SCF Done:  E(RHF) =  -936.884936745     A.U. after   13 cycles
 E2 =    -0.2043020892D+01 EUMP2 =    -0.93892795763766D+03
 Normal termination of Gaussian 16 at Thu Nov 25 11:42:54 2021.

 ---------------------------------------------------------
 #N Geom=AllCheck Guess=TCheck SCRF=Check MP4=FrzG4/GTBas3
 ---------------------------------------------------------

 Structure from the checkpoint file:  "/home/artemiy/opt/gaussian/scr/Gau-1799.chk"
 -------------------
 Title Card Required
 -------------------
 Charge =  0 Multiplicity = 1

 SCF Done:  E(RHF) =  -936.918803224     A.U. after   12 cycles
 E2 =    -0.2522694356D+01 EUMP2 =    -0.93944149758002D+03
 Normal termination of Gaussian 16 at Thu Nov 25 18:51:34 2021.

 -----------------------------------------------------------
 #N Geom=AllCheck Guess=TCheck SCRF=Check MP2=Full/GTLargeXP
 -----------------------------------------------------------

 Structure from the checkpoint file:  "/home/artemiy/opt/gaussian/scr/Gau-1799.chk"
 -------------------
 Title Card Required
 -------------------
 Charge =  0 Multiplicity = 1

 SCF Done:  E(RHF) =  -937.202675462     A.U. after   13 cycles
 E2 =    -0.3356184464D+01 EUMP2 =    -0.94055885992640D+03
 Normal termination of Gaussian 16 at Thu Nov 25 19:19:32 2021.
 SCF Done:  E(RHF) =  -937.287506394     A.U. after    9 cycles
 Normal termination of Gaussian 16 at Thu Nov 25 19:39:10 2021.

                         Standard orientation:
 ---------------------------------------------------------------------
 Center     Atomic      Atomic             Coordinates (Angstroms)
 Number     Number       Type             X           Y           Z
 ---------------------------------------------------------------------
      1          6           0       -2.518864   -0.311468    0.000287
      2          9           0       -3.222955    0.029036   -1.080541
      3          9           0       -3.222642    0.028802    1.081391
      4          9           0       -2.358020   -1.636058    0.000120
      5          6           0       -1.175268    0.404524    0.000169
      6          6           0        0.010887   -0.261364   -0.000084
      7          6           0        1.224498    0.512165   -0.000165
      8          8           0        1.264511    1.741407    0.000038
      9          6           0        2.551894   -0.281322   -0.000351
     10          9           0        2.607680   -1.069600    1.082184
     11          9           0        2.607348   -1.069671   -1.082849
     12          9           0        3.600855    0.523517   -0.000538
     13          1           0        0.036197   -1.339708   -0.000217
     14          8           0       -1.305255    1.711865    0.000332
     15          1           0       -0.379509    2.084093    0.000223
 ---------------------------------------------------------------------

 SCF Done:  E(RHF) =  -937.305265503     A.U. after    7 cycles

 The electronic state is 1-A.
 Alpha  occ. eigenvalues --  -26.36763 -26.36549 -26.36547 -26.36328 -26.36326
 Alpha  occ. eigenvalues --  -26.36207 -20.64195 -20.61055 -11.54558 -11.53948
 Alpha  occ. eigenvalues --  -11.40361 -11.39755 -11.27891  -1.76183  -1.76032
 Alpha  occ. eigenvalues --   -1.66720  -1.66515  -1.66397  -1.66335  -1.48577
 Alpha  occ. eigenvalues --   -1.44346  -1.13636  -1.06193  -1.01774  -0.93313
 Alpha  occ. eigenvalues --   -0.90431  -0.85853  -0.85465  -0.85357  -0.85337
 Alpha  occ. eigenvalues --   -0.81510  -0.79447  -0.74460  -0.74081  -0.73868
 Alpha  occ. eigenvalues --   -0.73862  -0.73545  -0.70723  -0.69564  -0.69431
 Alpha  occ. eigenvalues --   -0.69390  -0.68876  -0.67783  -0.67758  -0.64637
 Alpha  occ. eigenvalues --   -0.64455  -0.63005  -0.59878  -0.58783  -0.48934
 Alpha  occ. eigenvalues --   -0.41128
 Alpha virt. eigenvalues --    0.02807   0.03788   0.04155   0.04439   0.04855
 Alpha virt. eigenvalues --    0.05738   0.06282   0.06499   0.07346   0.07615
 Alpha virt. eigenvalues --    0.08181   0.08701   0.09596   0.10177   0.10623

 Mulliken charges:
               1
     1  C    0.730511
     2  F   -0.263847
     3  F   -0.263847
     4  F   -0.291035
     5  C    0.424937
     6  C   -0.345384
     7  C    0.535243
     8  O   -0.554926
     9  C    0.662383
    10  F   -0.257985
    11  F   -0.257990
    12  F   -0.256344
    13  H    0.243135
    14  O   -0.555443
    15  H    0.450592
 Sum of Mulliken charges =  -0.00000

 Dipole moment (field-independent basis, Debye):
    X=             -0.0945    Y=             -0.9367    Z=             -0.0003  Tot=              0.9415
 Quadrupole moment (field-independent basis, Debye-Ang):
   XX=            -79.3960   YY=            -72.6252   ZZ=            -70.5048
   XY=             -0.6874   XZ=              0.0008   YZ=             -0.0004

    1 imaginary frequencies ignored.
 Normal termination of Gaussian 16 at Thu Nov 25 22:08:38 2021.
