 Gaussian 16, Revision A.03,
 Gaussian 16:  ES64L-G16RevA.03 25-Dec-2016

 -------------
 # g4 geom=gic
 -------------

 -------------------
 CAS 1522-22-1
 -------------------
 Symbolic Z-matrix:
 Charge =  0 Multiplicity = 1

 SCF Done:  E(RB3LYP) =  -941.259859869     A.U. after   13 cycles
 SCF Done:  E(RB3LYP) =  -941.260539908     A.U. after   13 cycles
 SCF Done:  E(RB3LYP) =  -941.256509409     A.U. after   13 cycles
 SCF Done:  E(RB3LYP) =  -941.260479424     A.U. after   12 cycles
 SCF Done:  E(RB3LYP) =  -941.261396192     A.U. after   10 cycles
 SCF Done:  E(RB3LYP) =  -941.261771885     A.U. after   11 cycles
 SCF Done:  E(RB3LYP) =  -941.261919974     A.U. after   11 cycles
 SCF Done:  E(RB3LYP) =  -941.261943994     A.U. after   11 cycles
 SCF Done:  E(RB3LYP) =  -941.261906078     A.U. after   10 cycles
 SCF Done:  E(RB3LYP) =  -941.261950410     A.U. after   10 cycles
 SCF Done:  E(RB3LYP) =  -941.261955252     A.U. after    8 cycles
 SCF Done:  E(RB3LYP) =  -941.261955320     A.U. after    7 cycles
 SCF Done:  E(RB3LYP) =  -941.261955386     A.U. after    7 cycles
 Optimization completed.
    -- Stationary point found.
 Normal termination of Gaussian 16 at Tue Nov 23 08:40:39 2021.

 ----------------------------------------------------------
 #N Geom=AllCheck Guess=TCheck SCRF=Check B3LYP/GTBas3 Freq
 ----------------------------------------------------------

 Structure from the checkpoint file:  "/home/artemiy/opt/gaussian/scr/Gau-1820.chk"
 -------------------
 Title Card Required
 -------------------
 Charge =  0 Multiplicity = 1

 SCF Done:  E(RB3LYP) =  -941.261955386     A.U. after    1 cycles

  Exact polarizability:  66.003   6.093  65.657  -0.001  -0.001  53.509
 Approx polarizability:  87.254  13.492 114.382  -0.002  -0.006  78.533

                      1                      2                      3
                      A                      A                      A
 Frequencies --     20.2589                31.5601                68.3958
 Red. masses --     13.2085                18.0212                17.1140
 Frc consts  --      0.0032                 0.0106                 0.0472
 IR Inten    --      0.3124                 0.1787                 0.1478

                      4                      5                      6
                      A                      A                      A
 Frequencies --     83.5651               110.4208               192.6633
 Red. masses --     11.9856                15.7041                14.2110
 Frc consts  --      0.0493                 0.1128                 0.3108
 IR Inten    --      1.4370                 0.7616                 7.0684

                      7                      8                      9
                      A                      A                      A
 Frequencies --    199.8837               237.3315               255.3103
 Red. masses --     11.2378                 5.3116                16.8416
 Frc consts  --      0.2645                 0.1763                 0.6468
 IR Inten    --     10.5078                 1.5532                 0.0004

                     10                     11                     12
                      A                      A                      A
 Frequencies --    349.1739               354.6753               421.7787
 Red. masses --     15.3550                 4.2351                12.2074
 Frc consts  --      1.1030                 0.3139                 1.2795
 IR Inten    --      0.2317                 1.6009                 2.4346

                     13                     14                     15
                      A                      A                      A
 Frequencies --    429.2412               498.9905               509.4347
 Red. masses --     10.5702                10.0686                12.8184
 Frc consts  --      1.1475                 1.4771                 1.9600
 IR Inten    --      4.7193                 5.8212                10.4180

                     16                     17                     18
                      A                      A                      A
 Frequencies --    534.9603               547.9839               579.2999
 Red. masses --     10.3132                 5.6418                11.5193
 Frc consts  --      1.7389                 0.9982                 2.2776
 IR Inten    --      5.9869                20.3418                 0.8713

                     19                     20                     21
                      A                      A                      A
 Frequencies --    634.8077               680.8717               750.8828
 Red. masses --      5.3769                 5.4526                15.1017
 Frc consts  --      1.2766                 1.4893                 5.0167
 IR Inten    --     19.8879                14.2665                 6.8949

                     22                     23                     24
                      A                      A                      A
 Frequencies --    778.7085               820.1465               940.6502
 Red. masses --      7.6955                 7.2017                 2.9811
 Frc consts  --      2.7494                 2.8541                 1.5541
 IR Inten    --      1.8875                 0.1397                21.6269

                     25                     26                     27
                      A                      A                      A
 Frequencies --   1044.0173              1078.1136              1161.5742
 Red. masses --      4.0056                 4.4967                11.1529
 Frc consts  --      2.5724                 3.0795                 8.8660
 IR Inten    --     88.9273               225.3937               264.8053

                     28                     29                     30
                      A                      A                      A
 Frequencies --   1182.0616              1185.1512              1247.1321
 Red. masses --      2.9010                 5.1823                 7.9400
 Frc consts  --      2.3882                 4.2887                 7.2760
 IR Inten    --     11.0929               212.1688               355.1576

                     31                     32                     33
                      A                      A                      A
 Frequencies --   1259.3350              1271.7998              1330.6821
 Red. masses --      3.7812                 1.5802                11.3934
 Frc consts  --      3.5332                 1.5059                11.8864
 IR Inten    --     51.6965                13.6267                67.1056

                     34                     35                     36
                      A                      A                      A
 Frequencies --   1343.4337              1439.0627              1841.3214
 Red. masses --      6.3371                 1.0911                13.0810
 Frc consts  --      6.7387                 1.3312                26.1306
 IR Inten    --     40.4979                14.7915               315.1293

                     37                     38                     39
                      A                      A                      A
 Frequencies --   1875.7306              3066.4172              3132.1542
 Red. masses --     12.1445                 1.0561                 1.1058
 Frc consts  --     25.1750                 5.8510                 6.3917
 IR Inten    --      0.0061                 0.7726                 0.5082

 - Thermochemistry -
 -------------------
 Temperature   298.150 Kelvin.  Pressure   1.00000 Atm.
 Atom     1 has atomic number  6 and mass  12.00000

 Molecular mass:   207.99590 amu.
 Principal axes and moments of inertia in atomic units:
                           1         2         3
     Eigenvalues --  1312.672603296.115153501.92906
           X            0.99997   0.00745  -0.00004
           Y           -0.00745   0.99997   0.00006
           Z            0.00004  -0.00006   1.00000
 This molecule is an asymmetric top.
 Rotational symmetry number  1.
 Warning -- assumption of classical behavior for rotation
           may cause significant error
 Rotational temperatures (Kelvin)      0.06598     0.02628     0.02473
 Rotational constants (GHZ):           1.37486     0.54754     0.51536
 Zero-point vibrational energy     200308.6 (Joules/Mol)
                                   47.87490 (Kcal/Mol)
 Warning -- explicit consideration of  18 degrees of freedom as
           vibrations may cause significant error
 Vibrational temperatures:     29.15    45.41    98.41   120.23   158.87
          (Kelvin)            277.20   287.59   341.47   367.33   502.38
                              510.30   606.85   617.58   717.94   732.96
                              769.69   788.43   833.48   913.35   979.62
                             1080.35  1120.39  1180.01  1353.39  1502.11
                             1551.17  1671.25  1700.72  1705.17  1794.34
                             1811.90  1829.84  1914.55  1932.90  2070.49
                             2649.25  2698.76  4411.89  4506.47

 Zero-point correction=                           0.076294 (Hartree/Particle)
 Thermal correction to Energy=                    0.088328
 Thermal correction to Enthalpy=                  0.089273
 Thermal correction to Gibbs Free Energy=         0.035403
 Sum of electronic and zero-point Energies=           -941.185662
 Sum of electronic and thermal Energies=              -941.173627
 Sum of electronic and thermal Enthalpies=            -941.172683
 Sum of electronic and thermal Free Energies=         -941.226552

                     E (Thermal)             CV                S
                      KCal/Mol        Cal/Mol-Kelvin    Cal/Mol-Kelvin
 Total                   55.427             41.383            113.378
 Electronic               0.000              0.000              0.000
 Translational            0.889              2.981             41.901
 Rotational               0.889              2.981             31.094
 Vibrational             53.649             35.422             40.383
 Vibration     1          0.593              1.986              6.609
 Vibration     2          0.594              1.983              5.729
 Vibration     3          0.598              1.969              4.199
 Vibration     4          0.600              1.960              3.805
 Vibration     5          0.606              1.941              3.262
 Vibration     6          0.635              1.850              2.202
 Vibration     7          0.638              1.840              2.134
 Vibration     8          0.656              1.784              1.823
 Vibration     9          0.666              1.754              1.694
 Vibration    10          0.726              1.577              1.170
 Vibration    11          0.731              1.566              1.145
 Vibration    12          0.784              1.423              0.886
 Vibration    13          0.791              1.407              0.861
 Vibration    14          0.854              1.252              0.661
 Vibration    15          0.865              1.229              0.635
 Vibration    16          0.890              1.173              0.576
 Vibration    17          0.903              1.144              0.548
 Vibration    18          0.936              1.076              0.487

 Optimization completed.
    -- Stationary point found.
 Normal termination of Gaussian 16 at Tue Nov 23 08:55:03 2021.

 -----------------------------------------------------------------
 #N Geom=AllCheck Guess=TCheck SCRF=Check CCSD(T,E4T,FrzG4)/GTBas1
 -----------------------------------------------------------------

 Structure from the checkpoint file:  "/home/artemiy/opt/gaussian/scr/Gau-1820.chk"
 -------------------
 Title Card Required
 -------------------
 Charge =  0 Multiplicity = 1

 SCF Done:  E(RHF) =  -936.858382801     A.U. after   14 cycles
 E2 =    -0.2000122672D+01 EUMP2 =    -0.93885850547333D+03
 CCSD(T)= -0.93894514494D+03
 P4SDQ=-938.89662\CCSD=-938.8857157\CCSD(T)=-938.9451449\RMSD=4.882e-09
 Normal termination of Gaussian 16 at Tue Nov 23 10:17:37 2021.

 ---------------------------------------------------------
 #N Geom=AllCheck Guess=TCheck SCRF=Check MP4=FrzG4/GTBas2
 ---------------------------------------------------------

 Structure from the checkpoint file:  "/home/artemiy/opt/gaussian/scr/Gau-1820.chk"
 -------------------
 Title Card Required
 -------------------
 Charge =  0 Multiplicity = 1

 SCF Done:  E(RHF) =  -936.886038894     A.U. after   14 cycles
 E2 =    -0.2037929809D+01 EUMP2 =    -0.93892396870336D+03
 Normal termination of Gaussian 16 at Tue Nov 23 11:41:08 2021.

 ---------------------------------------------------------
 #N Geom=AllCheck Guess=TCheck SCRF=Check MP4=FrzG4/GTBas3
 ---------------------------------------------------------

 Structure from the checkpoint file:  "/home/artemiy/opt/gaussian/scr/Gau-1820.chk"
 -------------------
 Title Card Required
 -------------------
 Charge =  0 Multiplicity = 1

 SCF Done:  E(RHF) =  -936.917655407     A.U. after   12 cycles
 E2 =    -0.2517621367D+01 EUMP2 =    -0.93943527677452D+03
 Normal termination of Gaussian 16 at Tue Nov 23 18:09:53 2021.

 -----------------------------------------------------------
 #N Geom=AllCheck Guess=TCheck SCRF=Check MP2=Full/GTLargeXP
 -----------------------------------------------------------

 Structure from the checkpoint file:  "/home/artemiy/opt/gaussian/scr/Gau-1820.chk"
 -------------------
 Title Card Required
 -------------------
 Charge =  0 Multiplicity = 1

 SCF Done:  E(RHF) =  -937.199699950     A.U. after   14 cycles
 E2 =    -0.3349158233D+01 EUMP2 =    -0.94054885818329D+03
 Normal termination of Gaussian 16 at Tue Nov 23 18:43:51 2021.
 SCF Done:  E(RHF) =  -937.282991489     A.U. after    9 cycles
 Normal termination of Gaussian 16 at Tue Nov 23 19:04:37 2021.

                         Standard orientation:
 ---------------------------------------------------------------------
 Center     Atomic      Atomic             Coordinates (Angstroms)
 Number     Number       Type             X           Y           Z
 ---------------------------------------------------------------------
      1          6           0        1.921649   -0.198649   -0.273219
      2          9           0        1.116467   -0.881967   -1.103219
      3          9           0        2.786191    0.495525   -0.988153
      4          9           0        2.586256   -1.088380    0.477823
      5          6           0        1.072811    0.719061    0.649330
      6          8           0        1.309042    1.889841    0.722486
      7          6           0       -0.000079    0.000453    1.465167
      8          6           0       -1.072721   -0.718708    0.649507
      9          8           0       -1.308690   -1.889519    0.723045
     10          6           0       -1.921681    0.198497   -0.273431
     11          9           0       -2.785796   -0.496137   -0.988436
     12          9           0       -2.586808    1.088107    0.477303
     13          9           0       -1.116575    0.881980   -1.103362
     14          1           0        0.475419   -0.758602    2.092328
     15          1           0       -0.475722    0.759941    2.091690
 ---------------------------------------------------------------------

 SCF Done:  E(RHF) =  -937.300613038     A.U. after    7 cycles

 The electronic state is 1-A.
 Alpha  occ. eigenvalues --  -26.37044 -26.37044 -26.37007 -26.37007 -26.36578
 Alpha  occ. eigenvalues --  -26.36578 -20.62112 -20.62112 -11.54236 -11.54236
 Alpha  occ. eigenvalues --  -11.40495 -11.40495 -11.30967  -1.76518  -1.76407
 Alpha  occ. eigenvalues --   -1.67057  -1.66955  -1.66926  -1.66810  -1.46704
 Alpha  occ. eigenvalues --   -1.46388  -1.12584  -1.04949  -1.01860  -0.91564
 Alpha  occ. eigenvalues --   -0.90240  -0.85942  -0.85797  -0.85794  -0.85651
 Alpha  occ. eigenvalues --   -0.80975  -0.75771  -0.75020  -0.74438  -0.74275
 Alpha  occ. eigenvalues --   -0.74012  -0.70908  -0.70767  -0.70003  -0.69606
 Alpha  occ. eigenvalues --   -0.69186  -0.68536  -0.68408  -0.68077  -0.67824
 Alpha  occ. eigenvalues --   -0.65426  -0.61995  -0.58251  -0.57217  -0.49588
 Alpha  occ. eigenvalues --   -0.47625
 Alpha virt. eigenvalues --    0.02652   0.04080   0.04201   0.04624   0.05798
 Alpha virt. eigenvalues --    0.06171   0.06263   0.06575   0.06708   0.06892
 Alpha virt. eigenvalues --    0.08406   0.09004   0.09125   0.09406   0.09671

 Mulliken charges:
               1
     1  C    0.751618
     2  F   -0.270956
     3  F   -0.257829
     4  F   -0.276467
     5  C    0.439069
     6  O   -0.443470
     7  C   -0.395609
     8  C    0.439058
     9  O   -0.443466
    10  C    0.751632
    11  F   -0.257836
    12  F   -0.276471
    13  F   -0.270953
    14  H    0.255836
    15  H    0.255844
 Sum of Mulliken charges =  -0.00000

 Dipole moment (field-independent basis, Debye):
    X=             -0.0003    Y=              0.0007    Z=              2.1119  Tot=              2.1119
 Quadrupole moment (field-independent basis, Debye-Ang):
   XX=            -74.8582   YY=            -79.7143   ZZ=            -65.4375
   XY=             -4.6122   XZ=              0.0003   YZ=              0.0027

 Normal termination of Gaussian 16 at Tue Nov 23 21:41:18 2021.
