 Gaussian 16, Revision A.03,
 Gaussian 16:  ES64L-G16RevA.03 25-Dec-2016

 ----------------
 # g3mp2 geom=gic
 ----------------

 -------------------
 CAS 5247-14-3
 -------------------
 Symbolic Z-matrix:
 Charge =  0 Multiplicity = 1

 SCF Done:  E(RHF) =  -431.259829343     A.U. after   15 cycles
 SCF Done:  E(RHF) =  -431.262683881     A.U. after   13 cycles
 SCF Done:  E(RHF) =  -431.262814666     A.U. after   12 cycles
 SCF Done:  E(RHF) =  -431.262824239     A.U. after   10 cycles
 SCF Done:  E(RHF) =  -431.262826829     A.U. after   10 cycles
 SCF Done:  E(RHF) =  -431.262827357     A.U. after    9 cycles
 SCF Done:  E(RHF) =  -431.262827493     A.U. after    9 cycles
 SCF Done:  E(RHF) =  -431.262827521     A.U. after    8 cycles
 Optimization completed.
    -- Stationary point found.
 Normal termination of Gaussian 16 at Fri Jun 17 12:08:17 2022.

 -------------------------------------------------------
 #N Geom=AllCheck Guess=TCheck SCRF=Check HF/GTBas1 Freq
 -------------------------------------------------------

 Structure from the checkpoint file:  "/home/artemiy/opt/gaussian/scr/Gau-1760.chk"
 -------------------
 Title Card Required
 -------------------
 Charge =  0 Multiplicity = 1

 SCF Done:  E(RHF) =  -431.262827521     A.U. after    1 cycles

  Exact polarizability:  84.428   6.057  74.647  -8.992   1.459  58.797
 Approx polarizability:  69.193   5.332  72.133  -9.429   0.750  56.983

                      1                      2                      3
                      A                      A                      A
 Frequencies --     72.6010                89.1950               133.5274
 Red. masses --      3.1442                 4.3475                 7.2037
 Frc consts  --      0.0098                 0.0204                 0.0757
 IR Inten    --      0.1457                 0.2455                 2.6639
 Raman Activ --      6.4415                 2.4536                 3.9485

                      4                      5                      6
                      A                      A                      A
 Frequencies --    142.6883               167.8346               181.3317
 Red. masses --      9.7243                 6.8413                 5.1570
 Frc consts  --      0.1166                 0.1135                 0.0999
 IR Inten    --      6.1291                17.4954                 9.3398
 Raman Activ --      5.3182                 1.6777                 4.7427

                      7                      8                      9
                      A                      A                      A
 Frequencies --    236.9022               344.1906               409.7010
 Red. masses --      4.2876                 3.2018                 9.7737
 Frc consts  --      0.1418                 0.2235                 0.9666
 IR Inten    --      2.6165                 0.7215                 0.0422
 Raman Activ --      2.5313                 4.7454                 0.1973

                     10                     11                     12
                      A                      A                      A
 Frequencies --    446.7310               533.0591               540.8668
 Red. masses --      2.5345                 5.6295                 6.8078
 Frc consts  --      0.2980                 0.9425                 1.1734
 IR Inten    --      0.6244                 0.9758                 2.8855
 Raman Activ --      3.2900                 1.6481                 0.8118

                     13                     14                     15
                      A                      A                      A
 Frequencies --    617.4218               629.6857               646.2713
 Red. masses --      8.3730                 2.3892                10.6682
 Frc consts  --      1.8806                 0.5582                 2.6253
 IR Inten    --      1.2523                 3.1067                 1.0955
 Raman Activ --      5.7845                 7.8177                 2.8229

                     16                     17                     18
                      A                      A                      A
 Frequencies --    647.9853               806.1929               976.4570
 Red. masses --     11.8083                 2.5479                 1.6343
 Frc consts  --      2.9212                 0.9757                 0.9181
 IR Inten    --      0.9632                24.8247                 3.0667
 Raman Activ --      5.0264                 5.2201                 0.6474

                     19                     20                     21
                      A                      A                      A
 Frequencies --   1017.2887              1113.9355              1121.7760
 Red. masses --      2.5099                 1.2602                 3.1514
 Frc consts  --      1.5303                 0.9213                 2.3365
 IR Inten    --      2.7382                56.6255                 7.1299
 Raman Activ --      5.3543                 0.6031                14.0703

                     22                     23                     24
                      A                      A                      A
 Frequencies --   1131.1428              1145.7545              1209.8203
 Red. masses --      1.6724                 1.8713                 6.5701
 Frc consts  --      1.2607                 1.4473                 5.6658
 IR Inten    --      7.5052                13.8261                33.4227
 Raman Activ --     13.8950                 3.0240                 8.6058

                     25                     26                     27
                      A                      A                      A
 Frequencies --   1287.0100              1413.8451              1446.1631
 Red. masses --      2.3803                 1.3407                 1.2484
 Frc consts  --      2.3230                 1.5790                 1.5383
 IR Inten    --     14.4520                10.9536                 4.3875
 Raman Activ --      1.5846                11.0953                27.3957

                     28                     29                     30
                      A                      A                      A
 Frequencies --   1489.3120              1594.4934              1628.2125
 Red. masses --      1.3742                 1.1740                 1.1143
 Frc consts  --      1.7959                 1.7585                 1.7405
 IR Inten    --      7.6849                 6.8120                 8.1447
 Raman Activ --      1.4028                19.0402                 6.0422

                     31                     32                     33
                      A                      A                      A
 Frequencies --   1877.8411              2634.8063              2636.0548
 Red. masses --      4.1232                12.7125                12.7113
 Frc consts  --      8.5665                51.9969                52.0416
 IR Inten    --      0.3202                 0.9312                 0.9720
 Raman Activ --     39.4094                42.1758                47.0841

                     34                     35                     36
                      A                      A                      A
 Frequencies --   2639.1081              3246.8595              3304.9635
 Red. masses --     12.7053                 1.0621                 1.1061
 Frc consts  --     52.1374                 6.5969                 7.1181
 IR Inten    --      2.0233                 8.9445                 3.4171
 Raman Activ --     88.3502                86.1592                54.5592

                     37                     38                     39
                      A                      A                      A
 Frequencies --   3339.6409              3359.3299              3425.6906
 Red. masses --      1.0615                 1.0955                 1.1169
 Frc consts  --      6.9751                 7.2840                 7.7223
 IR Inten    --      8.2803                 3.2317                10.0888
 Raman Activ --     56.9544                77.7546                74.9106

 - Thermochemistry -
 -------------------
 Temperature   298.150 Kelvin.  Pressure   1.00000 Atm.
 Atom     1 has atomic number  6 and mass  12.00000

 Molecular mass:   131.04835 amu.
 Principal axes and moments of inertia in atomic units:
                           1         2         3
     Eigenvalues --  1090.044551711.447371862.06461
           X            0.99976   0.00513   0.02136
           Y           -0.00552   0.99982   0.01822
           Z           -0.02126  -0.01833   0.99961
 This molecule is an asymmetric top.
 Rotational symmetry number  1.
 Warning -- assumption of classical behavior for rotation
           may cause significant error
 Rotational temperatures (Kelvin)      0.07946     0.05061     0.04651
 Rotational constants (GHZ):           1.65566     1.05451     0.96922
 Zero-point vibrational energy     297186.4 (Joules/Mol)
                                   71.02926 (Kcal/Mol)
 Warning -- explicit consideration of  13 degrees of freedom as
           vibrations may cause significant error
 Vibrational temperatures:    104.46   128.33   192.12   205.30   241.48
          (Kelvin)            260.90   340.85   495.21   589.47   642.75
                              766.95   778.19   888.33   905.98   929.84
                              932.31  1159.93  1404.90  1463.65  1602.70
                             1613.99  1627.46  1648.49  1740.66  1851.72
                             2034.21  2080.71  2142.79  2294.12  2342.63
                             2701.79  3790.90  3792.69  3797.09  4671.51
                             4755.11  4805.00  4833.33  4928.80

 Zero-point correction=                           0.113192 (Hartree/Particle)
 Thermal correction to Energy=                    0.122798
 Thermal correction to Enthalpy=                  0.123742
 Thermal correction to Gibbs Free Energy=         0.077861
 Sum of electronic and zero-point Energies=           -431.149635
 Sum of electronic and thermal Energies=              -431.140030
 Sum of electronic and thermal Enthalpies=            -431.139086
 Sum of electronic and thermal Free Energies=         -431.184966

                     E (Thermal)             CV                S
                      KCal/Mol        Cal/Mol-Kelvin    Cal/Mol-Kelvin
 Total                   77.057             32.996             96.564
 Electronic               0.000              0.000              0.000
 Translational            0.889              2.981             40.524
 Rotational               0.889              2.981             29.631
 Vibrational             75.279             27.034             26.409
 Vibration     1          0.599              1.967              4.082
 Vibration     2          0.602              1.957              3.678
 Vibration     3          0.613              1.920              2.895
 Vibration     4          0.616              1.911              2.768
 Vibration     5          0.625              1.882              2.460
 Vibration     6          0.630              1.865              2.315
 Vibration     7          0.656              1.784              1.826
 Vibration     8          0.723              1.587              1.193
 Vibration     9          0.774              1.449              0.928
 Vibration    10          0.806              1.368              0.806
 Vibration    11          0.888              1.177              0.580
 Vibration    12          0.896              1.160              0.563
 Vibration    13          0.977              0.995              0.421

 Optimization completed.
    -- Stationary point found.
 Normal termination of Gaussian 16 at Fri Jun 17 12:08:49 2022.

 ------------------------------------------------------------------
 #N Geom=AllCheck Guess=TCheck SCRF=Check MP2(Full)/GTBas1 Opt=RCFC
 ------------------------------------------------------------------

 Structure from the checkpoint file:  "/home/artemiy/opt/gaussian/scr/Gau-1760.chk"
 -------------------
 Title Card Required
 -------------------
 Charge =  0 Multiplicity = 1

 SCF Done:  E(RHF) =  -431.262827521     A.U. after    1 cycles
 E2 =    -0.1386736987D+01 EUMP2 =    -0.43264956450824D+03
 SCF Done:  E(RHF) =  -431.250459805     A.U. after   14 cycles
 E2 =    -0.1414765178D+01 EUMP2 =    -0.43266522498255D+03
 SCF Done:  E(RHF) =  -431.242984992     A.U. after   14 cycles
 E2 =    -0.1422942907D+01 EUMP2 =    -0.43266592789831D+03
 SCF Done:  E(RHF) =  -431.243249864     A.U. after   13 cycles
 E2 =    -0.1422709201D+01 EUMP2 =    -0.43266595906536D+03
 SCF Done:  E(RHF) =  -431.243152667     A.U. after    9 cycles
 E2 =    -0.1422806990D+01 EUMP2 =    -0.43266595965679D+03
 Optimization completed.
    -- Stationary point found.
 Normal termination of Gaussian 16 at Fri Jun 17 12:11:13 2022.

 --------------------------------------------------------------
 #N Geom=AllCheck Guess=TCheck SCRF=Check QCISD(T,FrzG3)/GTBas1
 --------------------------------------------------------------

 Structure from the checkpoint file:  "/home/artemiy/opt/gaussian/scr/Gau-1760.chk"
 -------------------
 Title Card Required
 -------------------
 Charge =  0 Multiplicity = 1

 SCF Done:  E(RHF) =  -431.243152667     A.U. after    1 cycles
 E2 =    -0.1377144887D+01 EUMP2 =    -0.43262029755451D+03
 Normal termination of Gaussian 16 at Fri Jun 17 12:51:15 2022.

 -------------------------------------------------------------
 #N Geom=AllCheck Guess=TCheck SCRF=Check MP2=FrzG3/GTMP2Large
 -------------------------------------------------------------

 Structure from the checkpoint file:  "/home/artemiy/opt/gaussian/scr/Gau-1760.chk"
 -------------------
 Title Card Required
 -------------------
 Charge =  0 Multiplicity = 1

                         Standard orientation:
 ---------------------------------------------------------------------
 Center     Atomic      Atomic             Coordinates (Angstroms)
 Number     Number       Type             X           Y           Z
 ---------------------------------------------------------------------
      1          6           0        0.519186   -0.017644   -0.021610
      2          6           0       -0.561988    0.023453   -1.151666
      3          1           0       -0.164072    0.665353   -1.945600
      4          1           0       -0.649701   -0.994421   -1.545218
      5          6           0        0.693910    1.332368    0.542582
      6          6           0        0.081175   -0.941015    1.038641
      7          6           0        1.799744   -0.484578   -0.580732
      8          7           0        2.801270   -0.863470   -1.079232
      9          7           0        0.803302    2.431948    0.959611
     10          7           0       -0.297574   -1.703044    1.857551
     11          6           0       -1.874368    0.521172   -0.634300
     12          1           0       -1.942618    1.581227   -0.397649
     13          6           0       -2.929944   -0.279406   -0.448744
     14          1           0       -2.890120   -1.340503   -0.677256
     15          1           0       -3.868762    0.104210   -0.064813
 ---------------------------------------------------------------------

 SCF Done:  E(RHF) =  -431.371682261     A.U. after   13 cycles
 E2 =    -0.1667912830D+01 EUMP2 =    -0.43303959509031D+03

 The electronic state is 1-A.
 Alpha  occ. eigenvalues --  -15.63592 -15.63576 -15.63250 -11.41866 -11.33704
 Alpha  occ. eigenvalues --  -11.33677 -11.33400 -11.31257 -11.27466 -11.26817
 Alpha  occ. eigenvalues --   -1.28768  -1.25203  -1.24982  -1.18502  -1.09716
 Alpha  occ. eigenvalues --   -0.97676  -0.85179  -0.84239  -0.79803  -0.69970
 Alpha  occ. eigenvalues --   -0.67174  -0.63862  -0.61453  -0.60885  -0.60566
 Alpha  occ. eigenvalues --   -0.58318  -0.54920  -0.52806  -0.52576  -0.50347
 Alpha  occ. eigenvalues --   -0.50215  -0.49485  -0.49378  -0.40807
 Alpha virt. eigenvalues --    0.03108   0.04555   0.04936   0.06525   0.07219
 Alpha virt. eigenvalues --    0.07722   0.07974   0.09197   0.09461   0.10013
 Alpha virt. eigenvalues --    0.10182   0.10645   0.11077   0.12081   0.13129

 Mulliken charges:
               1
     1  C    1.465327
     2  C   -0.144072
     3  H    0.134899
     4  H    0.160452
     5  C   -0.246147
     6  C   -0.279386
     7  C   -0.236588
     8  N   -0.271887
     9  N   -0.273554
    10  N   -0.271236
    11  C    0.051188
    12  H    0.163541
    13  C   -0.472504
    14  H    0.099111
    15  H    0.120857
 Sum of Mulliken charges =  -0.00000

 Dipole moment (field-independent basis, Debye):
    X=             -3.4934    Y=              0.0425    Z=             -2.7530  Tot=              4.4480
 Quadrupole moment (field-independent basis, Debye-Ang):
   XX=            -63.0918   YY=            -68.5391   ZZ=            -64.6270
   XY=              0.6046   XZ=              4.0062   YZ=              0.4295

 Normal termination of Gaussian 16 at Fri Jun 17 12:58:58 2022.
