 Gaussian 16, Revision A.03,
 Gaussian 16:  ES64L-G16RevA.03 25-Dec-2016

 -------------
 # g4 geom=gic
 -------------

 -------------------
 CAS 10380-69-5
 -------------------
 Symbolic Z-matrix:
 Charge =  0 Multiplicity = 1

 SCF Done:  E(RB3LYP) =  -789.233990641     A.U. after   14 cycles
 SCF Done:  E(RB3LYP) =  -789.245607539     A.U. after   14 cycles
 SCF Done:  E(RB3LYP) =  -789.246251009     A.U. after   14 cycles
 SCF Done:  E(RB3LYP) =  -789.246579719     A.U. after   12 cycles
 SCF Done:  E(RB3LYP) =  -789.246658668     A.U. after   11 cycles
 SCF Done:  E(RB3LYP) =  -789.246686006     A.U. after    9 cycles
 SCF Done:  E(RB3LYP) =  -789.246690673     A.U. after    9 cycles
 SCF Done:  E(RB3LYP) =  -789.246691442     A.U. after    8 cycles
 SCF Done:  E(RB3LYP) =  -789.246691616     A.U. after    7 cycles
 Optimization completed.
    -- Stationary point found.
 Normal termination of Gaussian 16 at Fri Jun 24 02:08:53 2022.

 ----------------------------------------------------------
 #N Geom=AllCheck Guess=TCheck SCRF=Check B3LYP/GTBas3 Freq
 ----------------------------------------------------------

 Structure from the checkpoint file:  "/home/artemiy/opt/gaussian/scr/Gau-21600.chk"
 -------------------
 Title Card Required
 -------------------
 Charge =  0 Multiplicity = 1

 SCF Done:  E(RB3LYP) =  -789.246691616     A.U. after    1 cycles

  Exact polarizability: 134.830  -2.745 179.045   0.000  -0.000 110.190
 Approx polarizability: 241.145  -5.673 253.599  -0.000   0.000 181.940

                      1                      2                      3
                      A                      B                      A
 Frequencies --     15.8360                28.7962                38.5820
 Red. masses --     11.4370                11.3002                12.9302
 Frc consts  --      0.0017                 0.0055                 0.0113
 IR Inten    --      0.3397                 1.0327                 0.0523

                      4                      5                      6
                      B                      A                      A
 Frequencies --     62.9809                72.5155               109.1224
 Red. masses --      7.6039                 7.8303                13.6998
 Frc consts  --      0.0178                 0.0243                 0.0961
 IR Inten    --      1.6362                 0.0381                 0.1541

                      7                      8                      9
                      B                      B                      A
 Frequencies --    124.3083               127.7936               132.7134
 Red. masses --     10.7551                 9.5185                10.0973
 Frc consts  --      0.0979                 0.0916                 0.1048
 IR Inten    --      7.7050                 7.8652                 1.1947

                     10                     11                     12
                      A                      B                      B
 Frequencies --    144.9085               157.7574               171.5470
 Red. masses --     10.6111                 7.2261                 3.2031
 Frc consts  --      0.1313                 0.1060                 0.0555
 IR Inten    --     24.2195                11.7387                 3.4384

                     13                     14                     15
                      A                      B                      A
 Frequencies --    178.8090               196.5591               233.2570
 Red. masses --     11.3136                 7.4016                 3.4557
 Frc consts  --      0.2131                 0.1685                 0.1108
 IR Inten    --      0.0526                 4.2706                 0.0228

                     16                     17                     18
                      B                      A                      B
 Frequencies --    275.9635               335.6777               362.5862
 Red. masses --      2.7531                 6.5202                 5.8103
 Frc consts  --      0.1235                 0.4329                 0.4501
 IR Inten    --      0.2399                 7.2810                 0.3542

                     19                     20                     21
                      A                      B                      A
 Frequencies --    367.7091               376.8276               436.0475
 Red. masses --     12.2659                 4.4549                 7.4643
 Frc consts  --      0.9771                 0.3727                 0.8362
 IR Inten    --      0.0000                 0.4799                 0.0701

                     22                     23                     24
                      A                      B                      B
 Frequencies --    485.7436               486.1916               501.2088
 Red. masses --      5.8161                 5.7789                 8.0645
 Frc consts  --      0.8085                 0.8048                 1.1936
 IR Inten    --      0.0931                 0.4711                 2.8872

                     25                     26                     27
                      A                      B                      A
 Frequencies --    568.1532               570.9179               572.1272
 Red. masses --      4.5453                12.4877                 9.0863
 Frc consts  --      0.8645                 2.3982                 1.7524
 IR Inten    --      0.3404                 0.0147                 0.2380

                     28                     29                     30
                      B                      A                      B
 Frequencies --    579.1400               581.3333               581.4978
 Red. masses --     12.0628                12.0547                12.0429
 Frc consts  --      2.3838                 2.4002                 2.3993
 IR Inten    --      0.1848                 0.0536                 0.2107

                     31                     32                     33
                      A                      B                      A
 Frequencies --    583.9564               644.7543               700.7098
 Red. masses --      5.9199                 4.4645                 5.2118
 Frc consts  --      1.1894                 1.0935                 1.5077
 IR Inten    --      0.0064                 2.2056                10.3769

                     34                     35                     36
                      B                      A                      B
 Frequencies --    859.9949               884.1095               914.4102
 Red. masses --      1.7995                 2.1697                 2.1139
 Frc consts  --      0.7841                 0.9992                 1.0414
 IR Inten    --      0.2387                 0.6389                 0.1364

                     37                     38                     39
                      B                      A                      A
 Frequencies --    978.2187               979.4653              1007.8823
 Red. masses --      9.0022                 9.1891                 1.7866
 Frc consts  --      5.0754                 5.1940                 1.0693
 IR Inten    --      0.0788                 0.0374                14.0787

                     40                     41                     42
                      A                      B                      B
 Frequencies --   1031.2218              1062.2360              1087.9695
 Red. masses --      1.5303                 2.5859                 4.3625
 Frc consts  --      0.9588                 1.7191                 3.0424
 IR Inten    --     18.1477                25.1030                29.0610

                     43                     44                     45
                      A                      B                      A
 Frequencies --   1098.9444              1105.8998              1159.9345
 Red. masses --      6.4558                 4.0628                 3.2234
 Frc consts  --      4.5936                 2.9276                 2.5553
 IR Inten    --      1.8218                17.3020                 4.6791

                     46                     47                     48
                      B                      A                      B
 Frequencies --   1252.9880              1282.2248              1316.6738
 Red. masses --      1.4765                 1.3042                 1.2969
 Frc consts  --      1.3658                 1.2634                 1.3247
 IR Inten    --     15.9039                 1.3030                 3.1489

                     49                     50                     51
                      A                      A                      B
 Frequencies --   1335.9710              1349.6209              1379.2207
 Red. masses --      1.2752                 1.3224                 1.3103
 Frc consts  --      1.3410                 1.4191                 1.4685
 IR Inten    --      1.7834                 0.5667                 8.4603

                     52                     53                     54
                      A                      B                      A
 Frequencies --   1473.9446              1474.1076              1736.4618
 Red. masses --      1.0957                 1.1010                 6.0692
 Frc consts  --      1.4025                 1.4097                10.7822
 IR Inten    --      5.6975                 8.4597                 0.3460

                     55                     56                     57
                      B                      A                      B
 Frequencies --   2372.8346              2372.8457              2373.7523
 Red. masses --     12.7024                12.7024                12.7023
 Frc consts  --     42.1376                42.1382                42.1698
 IR Inten    --      1.4704                 0.0071                 0.6222

                     58                     59                     60
                      A                      B                      A
 Frequencies --   2373.8078              2380.6641              2380.7694
 Red. masses --     12.7024                12.6859                12.6850
 Frc consts  --     42.1724                42.3611                42.3619
 IR Inten    --      0.6390                 0.5311                 0.0013

                     61                     62                     63
                      B                      A                      B
 Frequencies --   3061.4377              3061.4818              3121.6609
 Red. masses --      1.0605                 1.0607                 1.1037
 Frc consts  --      5.8559                 5.8573                 6.3366
 IR Inten    --      5.3164                 2.6120                 1.8578

                     64                     65                     66
                      A                      A                      B
 Frequencies --   3122.5923              3156.0870              3162.7082
 Red. masses --      1.1039                 1.0944                 1.0862
 Frc consts  --      6.3418                 6.4226                 6.4015
 IR Inten    --      0.0353                 0.0842                 6.4906

 - Thermochemistry -
 -------------------
 Temperature   298.150 Kelvin.  Pressure   1.00000 Atm.
 Atom     1 has atomic number  6 and mass  12.00000

 Molecular mass:   234.06539 amu.
 Principal axes and moments of inertia in atomic units:
                           1         2         3
     Eigenvalues --  2106.151438097.459378422.80590
           X           -0.05795   0.99832   0.00000
           Y            0.99832   0.05795   0.00000
           Z            0.00000   0.00000   1.00000
 This molecule is an asymmetric top.
 Rotational symmetry number  2.
 Warning -- assumption of classical behavior for rotation
           may cause significant error
 Rotational temperatures (Kelvin)      0.04112     0.01070     0.01028
 Rotational constants (GHZ):           0.85689     0.22288     0.21427
 Zero-point vibrational energy     409829.7 (Joules/Mol)
                                   97.95165 (Kcal/Mol)
 Warning -- explicit consideration of  31 degrees of freedom as
           vibrations may cause significant error
 Vibrational temperatures:     22.78    41.43    55.51    90.62   104.33
          (Kelvin)            157.00   178.85   183.87   190.95   208.49
                              226.98   246.82   257.27   282.80   335.60
                              397.05   482.97   521.68   529.05   542.17
                              627.38   698.88   699.52   721.13   817.45
                              821.42   823.16   833.25   836.41   836.65
                              840.18   927.66  1008.17  1237.34  1272.04
                             1315.63  1407.44  1409.23  1450.12  1483.70
                             1528.32  1565.35  1581.14  1591.14  1668.89
                             1802.77  1844.84  1894.40  1922.16  1941.80
                             1984.39  2120.68  2120.91  2498.38  3413.98
                             3414.00  3415.30  3415.38  3425.24  3425.40
                             4404.73  4404.79  4491.37  4492.71  4540.91
                             4550.43

 Zero-point correction=                           0.156096 (Hartree/Particle)
 Thermal correction to Energy=                    0.174297
 Thermal correction to Enthalpy=                  0.175242
 Thermal correction to Gibbs Free Energy=         0.107938
 Sum of electronic and zero-point Energies=           -789.090596
 Sum of electronic and thermal Energies=              -789.072394
 Sum of electronic and thermal Enthalpies=            -789.071450
 Sum of electronic and thermal Free Energies=         -789.138753

                     E (Thermal)             CV                S
                      KCal/Mol        Cal/Mol-Kelvin    Cal/Mol-Kelvin
 Total                  109.373             62.741            141.652
 Electronic               0.000              0.000              0.000
 Translational            0.889              2.981             42.253
 Rotational               0.889              2.981             31.952
 Vibrational            107.596             56.779             67.447
 Vibration     1          0.593              1.986              7.098
 Vibration     2          0.593              1.984              5.911
 Vibration     3          0.594              1.981              5.331
 Vibration     4          0.597              1.972              4.362
 Vibration     5          0.599              1.967              4.084
 Vibration     6          0.606              1.942              3.284
 Vibration     7          0.610              1.929              3.032
 Vibration     8          0.611              1.925              2.979
 Vibration     9          0.613              1.921              2.906
 Vibration    10          0.616              1.908              2.738
 Vibration    11          0.621              1.894              2.577
 Vibration    12          0.626              1.878              2.418
 Vibration    13          0.629              1.868              2.341
 Vibration    14          0.636              1.845              2.165
 Vibration    15          0.654              1.790              1.854
 Vibration    16          0.678              1.718              1.559
 Vibration    17          0.717              1.604              1.233
 Vibration    18          0.736              1.549              1.111
 Vibration    19          0.740              1.539              1.089
 Vibration    20          0.747              1.520              1.052
 Vibration    21          0.796              1.392              0.839
 Vibration    22          0.842              1.282              0.695
 Vibration    23          0.842              1.281              0.694
 Vibration    24          0.857              1.247              0.655
 Vibration    25          0.924              1.100              0.508
 Vibration    26          0.927              1.094              0.502
 Vibration    27          0.928              1.092              0.500
 Vibration    28          0.936              1.076              0.487
 Vibration    29          0.938              1.072              0.483
 Vibration    30          0.938              1.071              0.483
 Vibration    31          0.941              1.066              0.478

                           ! Non-Optimized Parameters !
 Normal termination of Gaussian 16 at Fri Jun 24 02:29:05 2022.

 -----------------------------------------------------------------
 #N Geom=AllCheck Guess=TCheck SCRF=Check CCSD(T,E4T,FrzG4)/GTBas1
 -----------------------------------------------------------------

 Structure from the checkpoint file:  "/home/artemiy/opt/gaussian/scr/Gau-21600.chk"
 -------------------
 Title Card Required
 -------------------
 Charge =  0 Multiplicity = 1

 SCF Done:  E(RHF) =  -784.479748584     A.U. after   13 cycles
 E2 =    -0.2462600696D+01 EUMP2 =    -0.78694234927929D+03
 CCSD(T)= -0.78710403164D+03
 CCSD(T)=-787.1040316\RMSD=6.395e-09\PG=C02 [X(C12H6N6)]\\@
 Normal termination of Gaussian 16 at Fri Jun 24 04:38:16 2022.

 ---------------------------------------------------------
 #N Geom=AllCheck Guess=TCheck SCRF=Check MP4=FrzG4/GTBas2
 ---------------------------------------------------------

 Structure from the checkpoint file:  "/home/artemiy/opt/gaussian/scr/Gau-21600.chk"
 -------------------
 Title Card Required
 -------------------
 Charge =  0 Multiplicity = 1

 SCF Done:  E(RHF) =  -784.496169985     A.U. after   13 cycles
 E2 =    -0.2491104712D+01 EUMP2 =    -0.78698727469744D+03
 Normal termination of Gaussian 16 at Fri Jun 24 07:03:49 2022.

 ---------------------------------------------------------
 #N Geom=AllCheck Guess=TCheck SCRF=Check MP4=FrzG4/GTBas3
 ---------------------------------------------------------

 Structure from the checkpoint file:  "/home/artemiy/opt/gaussian/scr/Gau-21600.chk"
 -------------------
 Title Card Required
 -------------------
 Charge =  0 Multiplicity = 1

 SCF Done:  E(RHF) =  -784.546387145     A.U. after   12 cycles
 E2 =    -0.2865463115D+01 EUMP2 =    -0.78741185025984D+03
 Normal termination of Gaussian 16 at Fri Jun 24 22:18:07 2022.

 -----------------------------------------------------------
 #N Geom=AllCheck Guess=TCheck SCRF=Check MP2=Full/GTLargeXP
 -----------------------------------------------------------

 Structure from the checkpoint file:  "/home/artemiy/opt/gaussian/scr/Gau-21600.chk"
 -------------------
 Title Card Required
 -------------------
 Charge =  0 Multiplicity = 1

 SCF Done:  E(RHF) =  -784.721774018     A.U. after   13 cycles
 E2 =    -0.3796544392D+01 EUMP2 =    -0.78851831840992D+03
 Normal termination of Gaussian 16 at Fri Jun 24 23:11:30 2022.
 SCF Done:  E(RHF) =  -784.777823430     A.U. after    9 cycles
 Normal termination of Gaussian 16 at Fri Jun 24 23:30:17 2022.

                         Standard orientation:
 ---------------------------------------------------------------------
 Center     Atomic      Atomic             Coordinates (Angstroms)
 Number     Number       Type             X           Y           Z
 ---------------------------------------------------------------------
      1          6           0       -0.136074    2.724240    0.012435
      2          6           0        0.160003    1.941398    1.357608
      3          1           0        1.243697    1.948959    1.494082
      4          1           0       -0.290972    2.534161    2.159593
      5          6           0        0.541737    2.049099   -1.111842
      6          6           0       -1.593097    2.771213   -0.225449
      7          6           0        0.383207    4.100520    0.143856
      8          7           0        0.804680    5.163883    0.294241
      9          7           0        1.104064    1.498533   -1.955393
     10          7           0       -2.739080    2.787020   -0.358058
     11          6           0       -0.383207    0.544412    1.346279
     12          1           0       -1.467025    0.448439    1.343474
     13          6           0        0.383207   -0.544412    1.346279
     14          1           0        1.467025   -0.448439    1.343474
     15          6           0       -0.160003   -1.941398    1.357608
     16          1           0       -1.243697   -1.948959    1.494082
     17          1           0        0.290972   -2.534161    2.159593
     18          6           0        0.136074   -2.724240    0.012435
     19          6           0       -0.383207   -4.100520    0.143856
     20          6           0       -0.541737   -2.049099   -1.111842
     21          6           0        1.593097   -2.771213   -0.225449
     22          7           0       -1.104064   -1.498533   -1.955393
     23          7           0        2.739080   -2.787020   -0.358058
     24          7           0       -0.804680   -5.163883    0.294241
 ---------------------------------------------------------------------

 SCF Done:  E(RHF) =  -784.787815808     A.U. after    7 cycles

 The electronic state is 1-A.
 Alpha  occ. eigenvalues --  -15.63267 -15.63267 -15.63214 -15.63214 -15.62848
 Alpha  occ. eigenvalues --  -15.62848 -11.42895 -11.42895 -11.33413 -11.33413
 Alpha  occ. eigenvalues --  -11.33354 -11.33354 -11.33024 -11.33023 -11.32941
 Alpha  occ. eigenvalues --  -11.32941 -11.30403 -11.30228  -1.30122  -1.30030
 Alpha  occ. eigenvalues --   -1.27159  -1.27159  -1.26889  -1.26832  -1.20245
 Alpha  occ. eigenvalues --   -1.18891  -1.12963  -1.03939  -0.95310  -0.86274
 Alpha  occ. eigenvalues --   -0.84740  -0.84610  -0.84046  -0.80733  -0.71244
 Alpha  occ. eigenvalues --   -0.69397  -0.68958  -0.66849  -0.62404  -0.62216
 Alpha  occ. eigenvalues --   -0.61748  -0.61688  -0.61337  -0.60911  -0.60204
 Alpha  occ. eigenvalues --   -0.59872  -0.57223  -0.54478  -0.54323  -0.54078
 Alpha  occ. eigenvalues --   -0.53929  -0.51967  -0.51791  -0.51725  -0.51694
 Alpha  occ. eigenvalues --   -0.51210  -0.50991  -0.50822  -0.50662  -0.43111
 Alpha virt. eigenvalues --    0.01250   0.02360   0.02726   0.03549   0.04411
 Alpha virt. eigenvalues --    0.04456   0.04931   0.05227   0.05286   0.06222
 Alpha virt. eigenvalues --    0.06527   0.06685   0.06879   0.06955   0.07385

 Mulliken charges:
               1
     1  C    0.719685
     2  C   -0.417362
     3  H    0.226676
     4  H    0.242578
     5  C    0.100752
     6  C    0.108602
     7  C    0.105867
     8  N   -0.377023
     9  N   -0.359014
    10  N   -0.363035
    11  C   -0.212310
    12  H    0.224585
    13  C   -0.212310
    14  H    0.224585
    15  C   -0.417362
    16  H    0.226676
    17  H    0.242578
    18  C    0.719685
    19  C    0.105867
    20  C    0.100752
    21  C    0.108602
    22  N   -0.359014
    23  N   -0.363035
    24  N   -0.377023
 Sum of Mulliken charges =  -0.00000

 Dipole moment (field-independent basis, Debye):
    X=             -0.0000    Y=              0.0000    Z=              6.2262  Tot=              6.2262
 Quadrupole moment (field-independent basis, Debye-Ang):
   XX=           -122.7778   YY=           -138.5481   ZZ=           -106.9281
   XY=              1.5225   XZ=             -0.0000   YZ=              0.0000

 Normal termination of Gaussian 16 at Sat Jun 25 02:11:53 2022.
