 Gaussian 16, Revision A.03,
 Gaussian 16:  ES64L-G16RevA.03 25-Dec-2016

 ----------------
 # g3mp2 geom=gic
 ----------------

 -------------------
 CAS 10380-69-5
 -------------------
 Symbolic Z-matrix:
 Charge =  0 Multiplicity = 1

 SCF Done:  E(RHF) =  -784.478611691     A.U. after   13 cycles
 SCF Done:  E(RHF) =  -784.484582123     A.U. after   15 cycles
 SCF Done:  E(RHF) =  -784.485222152     A.U. after   15 cycles
 SCF Done:  E(RHF) =  -784.487465956     A.U. after   13 cycles
 SCF Done:  E(RHF) =  -784.487954581     A.U. after   12 cycles
 SCF Done:  E(RHF) =  -784.488083934     A.U. after   12 cycles
 SCF Done:  E(RHF) =  -784.488122993     A.U. after   12 cycles
 SCF Done:  E(RHF) =  -784.488128866     A.U. after   10 cycles
 SCF Done:  E(RHF) =  -784.488129448     A.U. after    9 cycles
 SCF Done:  E(RHF) =  -784.488129488     A.U. after    7 cycles
 Optimization completed.
    -- Stationary point found.
 Normal termination of Gaussian 16 at Sat Jun 18 23:31:21 2022.

 -------------------------------------------------------
 #N Geom=AllCheck Guess=TCheck SCRF=Check HF/GTBas1 Freq
 -------------------------------------------------------

 Structure from the checkpoint file:  "/home/artemiy/opt/gaussian/scr/Gau-121147.chk"
 -------------------
 Title Card Required
 -------------------
 Charge =  0 Multiplicity = 1

 SCF Done:  E(RHF) =  -784.488129488     A.U. after    1 cycles

  Exact polarizability: 156.832   2.306 123.440  -0.000  -0.000  97.571
 Approx polarizability: 125.574   2.637 124.831  -0.000  -0.000  96.750

                      1                      2                      3
                      A                      A                      A
 Frequencies --     18.5138                33.1938                41.4397
 Red. masses --     11.4467                11.0527                12.8194
 Frc consts  --      0.0023                 0.0072                 0.0130
 IR Inten    --      0.4448                 1.3887                 0.1189
 Raman Activ --      0.1540                 0.2547                 0.1070

                      4                      5                      6
                      A                      A                      A
 Frequencies --     70.9664                82.0071               120.7423
 Red. masses --      7.4309                 7.8412                13.6910
 Frc consts  --      0.0220                 0.0311                 0.1176
 IR Inten    --      1.8740                 0.0486                 0.2585
 Raman Activ --      0.9022                 1.2705                 4.9646

                      7                      8                      9
                      A                      A                      A
 Frequencies --    138.0758               141.4368               146.6443
 Red. masses --     10.3878                 9.3923                10.1305
 Frc consts  --      0.1167                 0.1107                 0.1284
 IR Inten    --      9.1765                 9.3840                 1.1456
 Raman Activ --      6.8140                 0.4190                 7.2130

                     10                     11                     12
                      A                      A                      A
 Frequencies --    158.6877               173.0738               187.8464
 Red. masses --     10.6265                 6.9723                 3.2967
 Frc consts  --      0.1577                 0.1231                 0.0685
 IR Inten    --     29.4911                16.4970                 3.2022
 Raman Activ --      2.2316                 0.9112                 5.2645

                     13                     14                     15
                      A                      A                      A
 Frequencies --    198.0906               216.3069               255.5187
 Red. masses --     11.1705                 7.3140                 3.3882
 Frc consts  --      0.2583                 0.2016                 0.1303
 IR Inten    --      0.0970                 5.3025                 0.0412
 Raman Activ --      4.5054                 2.3936                 0.9343

                     16                     17                     18
                      A                      A                      A
 Frequencies --    304.1895               359.9956               400.7035
 Red. masses --      2.7383                 6.4906                 4.7459
 Frc consts  --      0.1493                 0.4956                 0.4490
 IR Inten    --      0.4112                 8.7356                 0.6530
 Raman Activ --      0.1636                 5.2687                 1.8098

                     19                     20                     21
                      A                      A                      A
 Frequencies --    409.6365               417.5242               480.7588
 Red. masses --     12.2444                 5.4561                 7.2895
 Frc consts  --      1.2106                 0.5604                 0.9927
 IR Inten    --      0.0028                 0.4454                 0.0414
 Raman Activ --      0.1896                 1.3552                 2.2272

                     22                     23                     24
                      A                      A                      A
 Frequencies --    534.0962               534.7633               549.0678
 Red. masses --      6.0077                 5.9212                 8.5806
 Frc consts  --      1.0097                 0.9977                 1.5241
 IR Inten    --      0.3054                 1.5860                 5.2807
 Raman Activ --      1.8823                 0.8836                 0.4712

                     25                     26                     27
                      A                      A                      A
 Frequencies --    615.9648               616.1399               619.3791
 Red. masses --     12.6701                12.6677                 3.7270
 Frc consts  --      2.8323                 2.8334                 0.8424
 IR Inten    --      0.6824                 2.2160                 0.4854
 Raman Activ --      0.3661                 7.4359                 0.4090

                     28                     29                     30
                      A                      A                      A
 Frequencies --    642.6358               646.6026               646.6584
 Red. masses --     11.8399                11.2854                11.8285
 Frc consts  --      2.8809                 2.7800                 2.9143
 IR Inten    --      1.0201                 0.2652                 1.2251
 Raman Activ --      5.2338                10.5099                 1.0325

                     31                     32                     33
                      A                      A                      A
 Frequencies --    648.3404               699.5349               759.5445
 Red. masses --      7.3164                 4.6097                 5.1729
 Frc consts  --      1.8120                 1.3291                 1.7583
 IR Inten    --      0.0004                 2.8661                16.6916
 Raman Activ --      1.1284                 1.4562                 7.5388

                     34                     35                     36
                      A                      A                      A
 Frequencies --    948.7224               960.6115              1008.8409
 Red. masses --      1.7127                 2.1670                 2.1622
 Frc consts  --      0.9082                 1.1781                 1.2965
 IR Inten    --      0.1933                 1.3972                 1.9823
 Raman Activ --      6.1081                 2.3672                 1.5441

                     37                     38                     39
                      A                      A                      A
 Frequencies --   1097.4734              1106.6565              1128.1132
 Red. masses --      2.7896                 7.9146                 1.8984
 Frc consts  --      1.9796                 5.7109                 1.4235
 IR Inten    --      7.3980                 6.3633                29.5666
 Raman Activ --      4.1049                22.6042                12.2084

                     40                     41                     42
                      A                      A                      A
 Frequencies --   1140.2476              1164.2377              1188.4573
 Red. masses --      2.1970                 3.0950                 2.6908
 Frc consts  --      1.6830                 2.4717                 2.2392
 IR Inten    --     17.3927                25.2515                27.9510
 Raman Activ --     11.8208                 6.0072                 9.2206

                     43                     44                     45
                      A                      A                      A
 Frequencies --   1212.0331              1214.4688              1268.8142
 Red. masses --      6.8685                 5.9837                 2.9408
 Frc consts  --      5.9448                 5.1998                 2.7894
 IR Inten    --      3.1740                60.8145                 6.2742
 Raman Activ --     12.7942                 4.9832                 2.3097

                     46                     47                     48
                      A                      A                      A
 Frequencies --   1381.9055              1412.4061              1459.5948
 Red. masses --      1.5051                 1.3117                 1.2663
 Frc consts  --      1.6934                 1.5418                 1.5895
 IR Inten    --     26.7524                 2.8577                 2.2992
 Raman Activ --      0.8340                32.2145                 1.0873

                     49                     50                     51
                      A                      A                      A
 Frequencies --   1467.1318              1500.7414              1527.8667
 Red. masses --      1.2711                 1.4082                 1.3538
 Frc consts  --      1.6119                 1.8686                 1.8620
 IR Inten    --      0.9362                 4.2981                15.0310
 Raman Activ --     32.6145                 4.4168                 4.2230

                     52                     53                     54
                      A                      A                      A
 Frequencies --   1625.6287              1626.3136              1907.4860
 Red. masses --      1.0953                 1.1000                 5.4776
 Frc consts  --      1.7054                 1.7142                11.7426
 IR Inten    --      5.3521                 8.9053                 0.3856
 Raman Activ --      6.7383                12.6291                86.7992

                     55                     56                     57
                      A                      A                      A
 Frequencies --   2636.1453              2636.1501              2637.2872
 Red. masses --     12.7114                12.7115                12.7110
 Frc consts  --     52.0455                52.0458                52.0891
 IR Inten    --      0.0379                 0.7832                 1.1745
 Raman Activ --     82.9337                 3.7544                15.0400

                     58                     59                     60
                      A                      A                      A
 Frequencies --   2637.4026              2640.2159              2640.4963
 Red. masses --     12.7113                12.7059                12.7056
 Frc consts  --     52.0947                52.1836                52.1933
 IR Inten    --      0.0120                 1.5801                 1.0075
 Raman Activ --     81.5737                 9.4457               162.1563

                     61                     62                     63
                      A                      A                      A
 Frequencies --   3250.5880              3250.6420              3308.6227
 Red. masses --      1.0621                 1.0623                 1.1061
 Frc consts  --      6.6121                 6.6137                 7.1340
 IR Inten    --      6.7343                 7.1092                 4.3642
 Raman Activ --     46.0633               156.1016                40.4425

                     64                     65                     66
                      A                      A                      A
 Frequencies --   3310.1643              3353.3000              3357.3693
 Red. masses --      1.1068                 1.0978                 1.0867
 Frc consts  --      7.1453                 7.2732                 7.2170
 IR Inten    --      0.2346                 0.1665                 7.8347
 Raman Activ --     66.5358                61.3345                 3.6241

 - Thermochemistry -
 -------------------
 Temperature   298.150 Kelvin.  Pressure   1.00000 Atm.
 Atom     1 has atomic number  6 and mass  12.00000

 Molecular mass:   234.06539 amu.
 Principal axes and moments of inertia in atomic units:
                           1         2         3
     Eigenvalues --  2093.300208181.512018490.91033
           X            1.00000  -0.00158  -0.00000
           Y            0.00158   1.00000  -0.00000
           Z            0.00000   0.00000   1.00000
 This molecule is an asymmetric top.
 Rotational symmetry number  1.
 Warning -- assumption of classical behavior for rotation
           may cause significant error
 Rotational temperatures (Kelvin)      0.04138     0.01059     0.01020
 Rotational constants (GHZ):           0.86215     0.22059     0.21255
 Zero-point vibrational energy     447847.3 (Joules/Mol)
                                  107.03806 (Kcal/Mol)
 Warning -- explicit consideration of  27 degrees of freedom as
           vibrations may cause significant error
 Vibrational temperatures:     26.64    47.76    59.62   102.10   117.99
          (Kelvin)            173.72   198.66   203.50   210.99   228.32
                              249.01   270.27   285.01   311.22   367.63
                              437.66   517.95   576.52   589.38   600.72
                              691.70   768.45   769.41   789.99   886.24
                              886.49   891.15   924.61   930.32   930.40
                              932.82  1006.47  1092.82  1365.00  1382.11
                             1451.50  1579.02  1592.23  1623.10  1640.56
                             1675.08  1709.92  1743.85  1747.35  1825.54
                             1988.25  2032.14  2100.03  2110.88  2159.23
                             2198.26  2338.92  2339.90  2744.45  3792.83
                             3792.83  3794.47  3794.63  3798.68  3799.09
                             4676.87  4676.95  4760.37  4762.59  4824.65
                             4830.51

 Zero-point correction=                           0.170576 (Hartree/Particle)
 Thermal correction to Energy=                    0.187691
 Thermal correction to Enthalpy=                  0.188636
 Thermal correction to Gibbs Free Energy=         0.123296
 Sum of electronic and zero-point Energies=           -784.317553
 Sum of electronic and thermal Energies=              -784.300438
 Sum of electronic and thermal Enthalpies=            -784.299494
 Sum of electronic and thermal Free Energies=         -784.364834

                     E (Thermal)             CV                S
                      KCal/Mol        Cal/Mol-Kelvin    Cal/Mol-Kelvin
 Total                  117.778             59.108            137.519
 Electronic               0.000              0.000              0.000
 Translational            0.889              2.981             42.253
 Rotational               0.889              2.981             33.341
 Vibrational            116.001             53.146             61.925
 Vibration     1          0.593              1.986              6.788
 Vibration     2          0.594              1.983              5.629
 Vibration     3          0.594              1.981              5.189
 Vibration     4          0.598              1.968              4.126
 Vibration     5          0.600              1.961              3.842
 Vibration     6          0.609              1.932              3.088
 Vibration     7          0.614              1.915              2.830
 Vibration     8          0.615              1.912              2.784
 Vibration     9          0.617              1.906              2.715
 Vibration    10          0.621              1.893              2.565
 Vibration    11          0.627              1.876              2.402
 Vibration    12          0.633              1.857              2.249
 Vibration    13          0.637              1.843              2.151
 Vibration    14          0.645              1.816              1.990
 Vibration    15          0.666              1.753              1.692
 Vibration    16          0.695              1.666              1.394
 Vibration    17          0.734              1.555              1.122
 Vibration    18          0.767              1.469              0.960
 Vibration    19          0.774              1.449              0.928
 Vibration    20          0.781              1.432              0.900
 Vibration    21          0.837              1.293              0.708
 Vibration    22          0.889              1.175              0.578
 Vibration    23          0.890              1.173              0.577
 Vibration    24          0.904              1.142              0.546
 Vibration    25          0.976              0.998              0.423
 Vibration    26          0.976              0.998              0.423
 Vibration    27          0.979              0.991              0.418

 Optimization completed.
    -- Stationary point found.
 Normal termination of Gaussian 16 at Sat Jun 18 23:34:31 2022.

 ------------------------------------------------------------------
 #N Geom=AllCheck Guess=TCheck SCRF=Check MP2(Full)/GTBas1 Opt=RCFC
 ------------------------------------------------------------------

 Structure from the checkpoint file:  "/home/artemiy/opt/gaussian/scr/Gau-121147.chk"
 -------------------
 Title Card Required
 -------------------
 Charge =  0 Multiplicity = 1

 SCF Done:  E(RHF) =  -784.488129488     A.U. after    1 cycles
 E2 =    -0.2514473553D+01 EUMP2 =    -0.78700260304114D+03
 SCF Done:  E(RHF) =  -784.464292364     A.U. after   13 cycles
 E2 =    -0.2569684818D+01 EUMP2 =    -0.78703397718193D+03
 SCF Done:  E(RHF) =  -784.444799001     A.U. after   15 cycles
 E2 =    -0.2592162440D+01 EUMP2 =    -0.78703696144082D+03
 SCF Done:  E(RHF) =  -784.445279067     A.U. after   12 cycles
 E2 =    -0.2591734896D+01 EUMP2 =    -0.78703701396285D+03
 SCF Done:  E(RHF) =  -784.445872348     A.U. after   12 cycles
 E2 =    -0.2591082929D+01 EUMP2 =    -0.78703695527724D+03
 SCF Done:  E(RHF) =  -784.445293279     A.U. after   12 cycles
 E2 =    -0.2591721442D+01 EUMP2 =    -0.78703701472174D+03
 SCF Done:  E(RHF) =  -784.445410847     A.U. after   10 cycles
 E2 =    -0.2591608112D+01 EUMP2 =    -0.78703701895934D+03
 Optimization completed.
    -- Stationary point found.
 Normal termination of Gaussian 16 at Sun Jun 19 00:41:24 2022.

 --------------------------------------------------------------
 #N Geom=AllCheck Guess=TCheck SCRF=Check QCISD(T,FrzG3)/GTBas1
 --------------------------------------------------------------

 Structure from the checkpoint file:  "/home/artemiy/opt/gaussian/scr/Gau-121147.chk"
 -------------------
 Title Card Required
 -------------------
 Charge =  0 Multiplicity = 1

 SCF Done:  E(RHF) =  -784.445410847     A.U. after    1 cycles
 E2 =    -0.2509332876D+01 EUMP2 =    -0.78695474372345D+03
 Normal termination of Gaussian 16 at Mon Jun 20 14:23:47 2022.

 -------------------------------------------------------------
 #N Geom=AllCheck Guess=TCheck SCRF=Check MP2=FrzG3/GTMP2Large
 -------------------------------------------------------------

 Structure from the checkpoint file:  "/home/artemiy/opt/gaussian/scr/Gau-121147.chk"
 -------------------
 Title Card Required
 -------------------
 Charge =  0 Multiplicity = 1

                         Standard orientation:
 ---------------------------------------------------------------------
 Center     Atomic      Atomic             Coordinates (Angstroms)
 Number     Number       Type             X           Y           Z
 ---------------------------------------------------------------------
      1          6           0        2.491328   -0.021095    0.008782
      2          6           0        1.933358   -0.143210    1.468738
      3          1           0        1.967464   -1.204055    1.737216
      4          1           0        2.621919    0.402602    2.122565
      5          6           0        1.626727   -0.799066   -0.893738
      6          6           0        2.497293    1.396000   -0.393588
      7          6           0        3.863743   -0.553404   -0.036239
      8          7           0        4.960644   -0.991423   -0.015607
      9          7           0        0.895567   -1.452915   -1.552774
     10          7           0        2.500912    2.548683   -0.652168
     11          6           0        0.541653    0.395967    1.537714
     12          1           0        0.426390    1.479656    1.534049
     13          6           0       -0.541653   -0.395967    1.537714
     14          1           0       -0.426390   -1.479656    1.534049
     15          6           0       -1.933358    0.143210    1.468738
     16          1           0       -1.967464    1.204055    1.737216
     17          1           0       -2.621919   -0.402602    2.122565
     18          6           0       -2.491328    0.021095    0.008782
     19          6           0       -3.863743    0.553404   -0.036239
     20          6           0       -1.626727    0.799066   -0.893738
     21          6           0       -2.497293   -1.396000   -0.393588
     22          7           0       -0.895567    1.452915   -1.552774
     23          7           0       -2.500912   -2.548683   -0.652168
     24          7           0       -4.960644    0.991423   -0.015607
 ---------------------------------------------------------------------

 SCF Done:  E(RHF) =  -784.670967220     A.U. after   14 cycles
 E2 =    -0.3017316343D+01 EUMP2 =    -0.78768828356261D+03

 The electronic state is 1-A.
 Alpha  occ. eigenvalues --  -15.64248 -15.64248 -15.64006 -15.64006 -15.63849
 Alpha  occ. eigenvalues --  -15.63849 -11.42772 -11.42772 -11.34282 -11.34282
 Alpha  occ. eigenvalues --  -11.34006 -11.34006 -11.33988 -11.33988 -11.32774
 Alpha  occ. eigenvalues --  -11.32774 -11.30317 -11.30152  -1.29558  -1.29286
 Alpha  occ. eigenvalues --   -1.25748  -1.25660  -1.25545  -1.25479  -1.20217
 Alpha  occ. eigenvalues --   -1.18844  -1.12722  -1.04000  -0.95237  -0.86559
 Alpha  occ. eigenvalues --   -0.85200  -0.85184  -0.84554  -0.80862  -0.71005
 Alpha  occ. eigenvalues --   -0.69627  -0.68952  -0.67389  -0.62297  -0.62119
 Alpha  occ. eigenvalues --   -0.61855  -0.61844  -0.61184  -0.60833  -0.60029
 Alpha  occ. eigenvalues --   -0.59391  -0.57372  -0.54130  -0.53606  -0.52896
 Alpha  occ. eigenvalues --   -0.52812  -0.51418  -0.50794  -0.50788  -0.50629
 Alpha  occ. eigenvalues --   -0.50174  -0.49965  -0.49791  -0.49383  -0.42730
 Alpha virt. eigenvalues --    0.02087   0.03282   0.03752   0.05725   0.05919
 Alpha virt. eigenvalues --    0.06132   0.06903   0.07473   0.08438   0.08581
 Alpha virt. eigenvalues --    0.08670   0.09112   0.09436   0.09558   0.09876

 Mulliken charges:
               1
     1  C    1.880760
     2  C   -0.343456
     3  H    0.171633
     4  H    0.159211
     5  C   -0.411661
     6  C   -0.418267
     7  C   -0.434319
     8  N   -0.229151
     9  N   -0.211115
    10  N   -0.222963
    11  C   -0.119796
    12  H    0.179125
    13  C   -0.119795
    14  H    0.179125
    15  C   -0.343456
    16  H    0.171633
    17  H    0.159211
    18  C    1.880760
    19  C   -0.434319
    20  C   -0.411661
    21  C   -0.418267
    22  N   -0.211115
    23  N   -0.222963
    24  N   -0.229151
 Sum of Mulliken charges =  -0.00000

 Dipole moment (field-independent basis, Debye):
    X=              0.0000    Y=              0.0000    Z=              6.6610  Tot=              6.6610
 Quadrupole moment (field-independent basis, Debye-Ang):
   XX=           -135.6478   YY=           -123.6979   ZZ=           -104.0171
   XY=             -0.2796   XZ=              0.0000   YZ=              0.0000

 Normal termination of Gaussian 16 at Mon Jun 20 16:30:27 2022.
