 Gaussian 16, Revision A.03,
 Gaussian 16:  ES64L-G16RevA.03 25-Dec-2016

 -------------
 # g4 geom=gic
 -------------

 -------------------
 CAS 5247-14-3
 -------------------
 Symbolic Z-matrix:
 Charge =  0 Multiplicity = 1

 SCF Done:  E(RB3LYP) =  -433.918107827     A.U. after   14 cycles
 SCF Done:  E(RB3LYP) =  -433.923431056     A.U. after   13 cycles
 SCF Done:  E(RB3LYP) =  -433.923488961     A.U. after   11 cycles
 SCF Done:  E(RB3LYP) =  -433.923510714     A.U. after   11 cycles
 SCF Done:  E(RB3LYP) =  -433.923518522     A.U. after   10 cycles
 SCF Done:  E(RB3LYP) =  -433.923521071     A.U. after    9 cycles
 SCF Done:  E(RB3LYP) =  -433.923521700     A.U. after    8 cycles
 Optimization completed.
    -- Stationary point found.
 Normal termination of Gaussian 16 at Fri Jun 17 16:04:39 2022.

 ----------------------------------------------------------
 #N Geom=AllCheck Guess=TCheck SCRF=Check B3LYP/GTBas3 Freq
 ----------------------------------------------------------

 Structure from the checkpoint file:  "/home/artemiy/opt/gaussian/scr/Gau-11056.chk"
 -------------------
 Title Card Required
 -------------------
 Charge =  0 Multiplicity = 1

 SCF Done:  E(RB3LYP) =  -433.923521700     A.U. after    1 cycles

  Exact polarizability:  94.558   4.475  81.079  -8.001   1.509  66.774
 Approx polarizability: 136.742  10.706 137.760 -19.739   1.132 108.665

                      1                      2                      3
                      A                      A                      A
 Frequencies --     65.3346                76.8564               120.7173
 Red. masses --      3.1390                 4.3543                 7.2889
 Frc consts  --      0.0079                 0.0152                 0.0626
 IR Inten    --      0.1060                 0.1722                 2.1727

                      4                      5                      6
                      A                      A                      A
 Frequencies --    128.7699               152.0160               164.2465
 Red. masses --      9.6356                 6.5050                 5.3256
 Frc consts  --      0.0941                 0.0886                 0.0846
 IR Inten    --      4.9990                13.6751                 7.6461

                      7                      8                      9
                      A                      A                      A
 Frequencies --    215.8284               311.1704               368.5507
 Red. masses --      4.3566                 3.2175                10.8088
 Frc consts  --      0.1196                 0.1836                 0.8650
 IR Inten    --      2.0739                 0.4840                 0.0273

                     10                     11                     12
                      A                      A                      A
 Frequencies --    410.2794               484.0523               491.9892
 Red. masses --      2.4937                 5.2359                 6.9032
 Frc consts  --      0.2473                 0.7228                 0.9845
 IR Inten    --      0.7155                 0.3653                 1.7944

                     13                     14                     15
                      A                      A                      A
 Frequencies --    571.0121               581.5773               582.6462
 Red. masses --      6.1389                 8.8416                 8.2909
 Frc consts  --      1.1793                 1.7620                 1.6583
 IR Inten    --      1.2624                 0.2267                 0.0303

                     16                     17                     18
                      A                      A                      A
 Frequencies --    584.3069               741.5806               895.0424
 Red. masses --      3.0559                 2.6091                 1.6564
 Frc consts  --      0.6147                 0.8454                 0.7818
 IR Inten    --      1.7623                16.4859                 1.8140

                     19                     20                     21
                      A                      A                      A
 Frequencies --    942.4066               981.0888               985.9181
 Red. masses --      2.8189                 2.0526                 2.1798
 Frc consts  --      1.4750                 1.1640                 1.2484
 IR Inten    --      0.7455                18.9999                10.9973

                     22                     23                     24
                      A                      A                      A
 Frequencies --   1029.5407              1043.0929              1097.9994
 Red. masses --      1.3008                 1.7937                 6.1743
 Frc consts  --      0.8124                 1.1499                 4.3857
 IR Inten    --     13.7484                12.3413                18.9286

                     25                     26                     27
                      A                      A                      A
 Frequencies --   1176.0672              1282.3986              1323.7195
 Red. masses --      2.4848                 1.3416                 1.2616
 Frc consts  --      2.0249                 1.2999                 1.3025
 IR Inten    --      8.4861                 6.7274                 6.1120

                     28                     29                     30
                      A                      A                      A
 Frequencies --   1342.9633              1454.5971              1476.8139
 Red. masses --      1.2961                 1.1416                 1.1260
 Frc consts  --      1.3773                 1.4232                 1.4469
 IR Inten    --      2.1497                 5.3227                 8.6345

                     31                     32                     33
                      A                      A                      A
 Frequencies --   1715.8332              2371.8848              2373.2812
 Red. masses --      4.6893                12.7030                12.7028
 Frc consts  --      8.1341                42.1060                42.1549
 IR Inten    --      0.7105                 0.1976                 0.3407

                     34                     35                     36
                      A                      A                      A
 Frequencies --   2379.9987              3057.0806              3118.0421
 Red. masses --     12.6848                 1.0607                 1.1034
 Frc consts  --     42.3338                 5.8403                 6.3204
 IR Inten    --      0.6998                 5.0210                 1.6353

                     37                     38                     39
                      A                      A                      A
 Frequencies --   3150.4893              3165.1553              3237.9764
 Red. masses --      1.0602                 1.0927                 1.1149
 Frc consts  --      6.2001                 6.4495                 6.8868
 IR Inten    --      3.5081                 2.2824                 5.2098

 - Thermochemistry -
 -------------------
 Temperature   298.150 Kelvin.  Pressure   1.00000 Atm.
 Atom     1 has atomic number  6 and mass  12.00000

 Molecular mass:   131.04835 amu.
 Principal axes and moments of inertia in atomic units:
                           1         2         3
     Eigenvalues --  1101.215031721.932701877.21468
           X            0.99975   0.00556   0.02185
           Y           -0.00600   0.99978   0.02028
           Z           -0.02173  -0.02041   0.99956
 This molecule is an asymmetric top.
 Rotational symmetry number  1.
 Warning -- assumption of classical behavior for rotation
           may cause significant error
 Rotational temperatures (Kelvin)      0.07865     0.05030     0.04614
 Rotational constants (GHZ):           1.63886     1.04809     0.96139
 Zero-point vibrational energy     273061.5 (Joules/Mol)
                                   65.26327 (Kcal/Mol)
 Warning -- explicit consideration of  16 degrees of freedom as
           vibrations may cause significant error
 Vibrational temperatures:     94.00   110.58   173.69   185.27   218.72
          (Kelvin)            236.31   310.53   447.70   530.26   590.30
                              696.44   707.86   821.56   836.76   838.30
                              840.69  1066.97  1287.77  1355.91  1411.57
                             1418.52  1481.28  1500.78  1579.78  1692.10
                             1845.09  1904.54  1932.22  2092.84  2124.81
                             2468.70  3412.61  3414.62  3424.29  4398.46
                             4486.17  4532.85  4553.95  4658.73

 Zero-point correction=                           0.104004 (Hartree/Particle)
 Thermal correction to Energy=                    0.114219
 Thermal correction to Enthalpy=                  0.115164
 Thermal correction to Gibbs Free Energy=         0.067926
 Sum of electronic and zero-point Energies=           -433.819518
 Sum of electronic and thermal Energies=              -433.809302
 Sum of electronic and thermal Enthalpies=            -433.808358
 Sum of electronic and thermal Free Energies=         -433.855596

                     E (Thermal)             CV                S
                      KCal/Mol        Cal/Mol-Kelvin    Cal/Mol-Kelvin
 Total                   71.674             35.157             99.420
 Electronic               0.000              0.000              0.000
 Translational            0.889              2.981             40.524
 Rotational               0.889              2.981             29.655
 Vibrational             69.896             29.195             29.241
 Vibration     1          0.597              1.971              4.289
 Vibration     2          0.599              1.965              3.970
 Vibration     3          0.609              1.932              3.089
 Vibration     4          0.611              1.924              2.964
 Vibration     5          0.619              1.900              2.647
 Vibration     6          0.623              1.886              2.500
 Vibration     7          0.645              1.817              1.994
 Vibration     8          0.700              1.652              1.356
 Vibration     9          0.741              1.537              1.086
 Vibration    10          0.774              1.448              0.926
 Vibration    11          0.840              1.285              0.699
 Vibration    12          0.848              1.268              0.678
 Vibration    13          0.927              1.094              0.502
 Vibration    14          0.938              1.071              0.482
 Vibration    15          0.939              1.069              0.480
 Vibration    16          0.941              1.065              0.477

 Optimization completed.
    -- Stationary point found.
 Normal termination of Gaussian 16 at Fri Jun 17 16:12:30 2022.

 -----------------------------------------------------------------
 #N Geom=AllCheck Guess=TCheck SCRF=Check CCSD(T,E4T,FrzG4)/GTBas1
 -----------------------------------------------------------------

 Structure from the checkpoint file:  "/home/artemiy/opt/gaussian/scr/Gau-11056.chk"
 -------------------
 Title Card Required
 -------------------
 Charge =  0 Multiplicity = 1

 SCF Done:  E(RHF) =  -431.258478607     A.U. after   14 cycles
 E2 =    -0.1356355431D+01 EUMP2 =    -0.43261483403867D+03
 CCSD(T)= -0.43271420975D+03
 P4SDQ=-432.6575651\CCSD=-432.6527033\CCSD(T)=-432.7142098\RMSD=8.538e-
 Normal termination of Gaussian 16 at Fri Jun 17 16:32:40 2022.

 ---------------------------------------------------------
 #N Geom=AllCheck Guess=TCheck SCRF=Check MP4=FrzG4/GTBas2
 ---------------------------------------------------------

 Structure from the checkpoint file:  "/home/artemiy/opt/gaussian/scr/Gau-11056.chk"
 -------------------
 Title Card Required
 -------------------
 Charge =  0 Multiplicity = 1

 SCF Done:  E(RHF) =  -431.268765904     A.U. after   13 cycles
 E2 =    -0.1370920322D+01 EUMP2 =    -0.43263968622566D+03
 Normal termination of Gaussian 16 at Fri Jun 17 16:44:58 2022.

 ---------------------------------------------------------
 #N Geom=AllCheck Guess=TCheck SCRF=Check MP4=FrzG4/GTBas3
 ---------------------------------------------------------

 Structure from the checkpoint file:  "/home/artemiy/opt/gaussian/scr/Gau-11056.chk"
 -------------------
 Title Card Required
 -------------------
 Charge =  0 Multiplicity = 1

 SCF Done:  E(RHF) =  -431.297457936     A.U. after   12 cycles
 E2 =    -0.1588217760D+01 EUMP2 =    -0.43288567569657D+03
 Normal termination of Gaussian 16 at Fri Jun 17 17:52:07 2022.

 -----------------------------------------------------------
 #N Geom=AllCheck Guess=TCheck SCRF=Check MP2=Full/GTLargeXP
 -----------------------------------------------------------

 Structure from the checkpoint file:  "/home/artemiy/opt/gaussian/scr/Gau-11056.chk"
 -------------------
 Title Card Required
 -------------------
 Charge =  0 Multiplicity = 1

 SCF Done:  E(RHF) =  -431.395135980     A.U. after   13 cycles
 E2 =    -0.2105469997D+01 EUMP2 =    -0.43350060597689D+03
 Normal termination of Gaussian 16 at Fri Jun 17 18:12:23 2022.
 SCF Done:  E(RHF) =  -431.426473311     A.U. after    9 cycles
 Normal termination of Gaussian 16 at Fri Jun 17 18:23:24 2022.

                         Standard orientation:
 ---------------------------------------------------------------------
 Center     Atomic      Atomic             Coordinates (Angstroms)
 Number     Number       Type             X           Y           Z
 ---------------------------------------------------------------------
      1          6           0        0.527554   -0.017269   -0.016189
      2          6           0       -0.627923   -0.002281   -1.100997
      3          1           0       -0.266535    0.636473   -1.913440
      4          1           0       -0.712633   -1.023172   -1.480914
      5          6           0        0.723312    1.343216    0.524947
      6          6           0        0.175358   -0.942755    1.079021
      7          6           0        1.777267   -0.472310   -0.658001
      8          7           0        2.727259   -0.833462   -1.204190
      9          7           0        0.845460    2.421645    0.916547
     10          7           0       -0.121887   -1.683608    1.911865
     11          6           0       -1.934954    0.488237   -0.553502
     12          1           0       -1.966098    1.532911   -0.253100
     13          6           0       -3.015433   -0.275855   -0.434076
     14          1           0       -3.014531   -1.321959   -0.725838
     15          1           0       -3.947113    0.117827   -0.043480
 ---------------------------------------------------------------------

 SCF Done:  E(RHF) =  -431.432149028     A.U. after    7 cycles

 The electronic state is 1-A.
 Alpha  occ. eigenvalues --  -15.62425 -15.62398 -15.62105 -11.41774 -11.32649
 Alpha  occ. eigenvalues --  -11.32594 -11.32328 -11.31364 -11.27412 -11.26638
 Alpha  occ. eigenvalues --   -1.29232  -1.26372  -1.26149  -1.18288  -1.09752
 Alpha  occ. eigenvalues --   -0.97573  -0.84581  -0.83552  -0.79557  -0.69914
 Alpha  occ. eigenvalues --   -0.66661  -0.63854  -0.61245  -0.60732  -0.60445
 Alpha  occ. eigenvalues --   -0.58613  -0.54835  -0.53512  -0.53084  -0.51071
 Alpha  occ. eigenvalues --   -0.50957  -0.50322  -0.49903  -0.40991
 Alpha virt. eigenvalues --    0.02366   0.03438   0.03630   0.04033   0.05435
 Alpha virt. eigenvalues --    0.05725   0.05911   0.06312   0.06490   0.07846
 Alpha virt. eigenvalues --    0.08169   0.08549   0.08896   0.09128   0.09309

 Mulliken charges:
               1
     1  C    0.634804
     2  C   -0.316107
     3  H    0.227318
     4  H    0.214674
     5  C    0.106148
     6  C    0.123597
     7  C    0.155582
     8  N   -0.375417
     9  N   -0.363475
    10  N   -0.370590
    11  C   -0.261174
    12  H    0.228835
    13  C   -0.389864
    14  H    0.177196
    15  H    0.208473
 Sum of Mulliken charges =  -0.00000

 Dipole moment (field-independent basis, Debye):
    X=             -3.6510    Y=              0.0035    Z=             -2.6019  Tot=              4.4833
 Quadrupole moment (field-independent basis, Debye-Ang):
   XX=            -61.9568   YY=            -68.2787   ZZ=            -64.9278
   XY=              0.6974   XZ=              4.2545   YZ=              0.7486

 Normal termination of Gaussian 16 at Fri Jun 17 19:57:20 2022.
