 Gaussian 16, Revision A.03,
 Gaussian 16:  ES64L-G16RevA.03 25-Dec-2016

 ----------------
 # g3mp2 geom=gic
 ----------------

 -------------------
 CAS 23995-88-2
 -------------------
 Symbolic Z-matrix:
 Charge =  0 Multiplicity = 1

 SCF Done:  E(RHF) =  -554.218491891     A.U. after   13 cycles
 SCF Done:  E(RHF) =  -554.220973322     A.U. after   11 cycles
 SCF Done:  E(RHF) =  -554.221328584     A.U. after   10 cycles
 SCF Done:  E(RHF) =  -554.221384015     A.U. after   10 cycles
 SCF Done:  E(RHF) =  -554.221392110     A.U. after    8 cycles
 SCF Done:  E(RHF) =  -554.221393148     A.U. after    8 cycles
 SCF Done:  E(RHF) =  -554.221393232     A.U. after    7 cycles
 Optimization completed.
    -- Stationary point found.
 Normal termination of Gaussian 16 at Thu Jan 26 17:05:28 2023.

 -------------------------------------------------------
 #N Geom=AllCheck Guess=TCheck SCRF=Check HF/GTBas1 Freq
 -------------------------------------------------------

 Structure from the checkpoint file:  "/home/arina/opt/gaussian/scr/Gau-618738.chk"
 -------------------
 Title Card Required
 -------------------
 Charge =  0 Multiplicity = 1

 SCF Done:  E(RHF) =  -554.221393232     A.U. after    1 cycles

  Exact polarizability: 132.887   1.850 106.884   0.807  -0.181 102.782
 Approx polarizability:  98.358   1.793 102.069   1.059  -0.747 102.584

                      1                      2                      3
                      A                      A                      A
 Frequencies --     61.0908                76.0202                89.9159
 Red. masses --      2.8079                 3.2884                 3.4895
 Frc consts  --      0.0062                 0.0112                 0.0166
 IR Inten    --      0.6047                 0.5348                 0.1224
 Raman Activ --      0.5380                 0.1424                 0.1206

                      4                      5                      6
                      A                      A                      A
 Frequencies --    198.4976               227.7550               245.2113
 Red. masses --      3.0379                 2.5867                 1.4261
 Frc consts  --      0.0705                 0.0791                 0.0505
 IR Inten    --      1.2757                 1.5217                 0.0879
 Raman Activ --      0.1001                 0.6605                 0.2702

                      7                      8                      9
                      A                      A                      A
 Frequencies --    262.1358               266.6880               279.7632
 Red. masses --      3.1415                 1.8365                 1.5918
 Frc consts  --      0.1272                 0.0770                 0.0734
 IR Inten    --      0.2921                 0.2434                 2.0041
 Raman Activ --      2.5980                 0.2119                 0.6635

                     10                     11                     12
                      A                      A                      A
 Frequencies --    324.9074               372.3805               409.4451
 Red. masses --      2.3432                 2.1359                 2.0768
 Frc consts  --      0.1457                 0.1745                 0.2051
 IR Inten    --      3.1787                 7.3121                 4.5666
 Raman Activ --      0.7526                 0.1314                 0.0945

                     13                     14                     15
                      A                      A                      A
 Frequencies --    418.1402               456.1432               496.2712
 Red. masses --      1.9905                 2.4502                 3.4175
 Frc consts  --      0.2051                 0.3004                 0.4959
 IR Inten    --      7.3215                 6.1885                 0.5752
 Raman Activ --      0.6310                 0.4591                 0.4205

                     16                     17                     18
                      A                      A                      A
 Frequencies --    522.4632               538.7489               550.4519
 Red. masses --      2.8244                 2.7719                 2.3303
 Frc consts  --      0.4542                 0.4740                 0.4160
 IR Inten    --      2.9263                 0.3181                 0.3130
 Raman Activ --      1.8048                 3.0893                 2.1292

                     19                     20                     21
                      A                      A                      A
 Frequencies --    616.5692               727.4888               840.5614
 Red. masses --      2.1314                 2.1126                 3.1876
 Frc consts  --      0.4774                 0.6587                 1.3269
 IR Inten    --      2.7621                14.6528                 4.4834
 Raman Activ --      0.4623                 0.4807                22.2440

                     22                     23                     24
                      A                      A                      A
 Frequencies --    865.3201               893.7923               894.4873
 Red. masses --      2.6532                 1.6996                 1.6744
 Frc consts  --      1.1705                 0.7999                 0.7893
 IR Inten    --     18.7420                73.9061                77.3374
 Raman Activ --      6.3214                 5.7083                 2.4624

                     25                     26                     27
                      A                      A                      A
 Frequencies --    923.4299               929.5765               981.8816
 Red. masses --      1.5509                 2.1638                 1.9266
 Frc consts  --      0.7792                 1.1016                 1.0943
 IR Inten    --      0.2831                16.8630                 7.3380
 Raman Activ --      1.8405                 2.7762                 1.8926

                     28                     29                     30
                      A                      A                      A
 Frequencies --   1000.2497              1016.1163              1075.1505
 Red. masses --      2.1258                 1.9306                 1.5657
 Frc consts  --      1.2531                 1.1745                 1.0663
 IR Inten    --      2.4077                 0.1725                 2.6716
 Raman Activ --      0.3144                 0.4357                 2.9629

                     31                     32                     33
                      A                      A                      A
 Frequencies --   1080.9192              1100.8339              1125.3834
 Red. masses --      1.7958                 2.5664                 2.1153
 Frc consts  --      1.2362                 1.8324                 1.5784
 IR Inten    --      2.5208                20.2689                11.5570
 Raman Activ --      0.4250                12.6377                 8.3331

                     34                     35                     36
                      A                      A                      A
 Frequencies --   1136.4429              1140.9711              1182.1919
 Red. masses --      1.5733                 2.1271                 1.7287
 Frc consts  --      1.1972                 1.6315                 1.4234
 IR Inten    --      5.7726                 8.2206                14.5909
 Raman Activ --      2.1341                 2.8707                 4.1551

                     37                     38                     39
                      A                      A                      A
 Frequencies --   1212.7261              1215.1714              1250.5621
 Red. masses --      2.1858                 1.8255                 2.0931
 Frc consts  --      1.8940                 1.5882                 1.9287
 IR Inten    --      5.2253                10.6277                38.2993
 Raman Activ --      2.6803                 1.9351                 9.3434

                     40                     41                     42
                      A                      A                      A
 Frequencies --   1259.1125              1262.7997              1282.4284
 Red. masses --      2.5838                 2.1486                 2.0724
 Frc consts  --      2.4135                 2.0187                 2.0081
 IR Inten    --     49.7433                27.2933                28.1086
 Raman Activ --      8.2117                 9.7550                 5.1484

                     43                     44                     45
                      A                      A                      A
 Frequencies --   1288.8155              1298.1829              1313.9534
 Red. masses --      1.3014                 2.0741                 1.2833
 Frc consts  --      1.2737                 2.0595                 1.3054
 IR Inten    --      1.5219                33.4836                24.7931
 Raman Activ --      2.3243                 4.9525                 6.9871

                     46                     47                     48
                      A                      A                      A
 Frequencies --   1328.9767              1344.8589              1391.9008
 Red. masses --      2.0903                 1.4753                 1.2810
 Frc consts  --      2.1751                 1.5721                 1.4623
 IR Inten    --      9.9855                 4.8559                29.4670
 Raman Activ --      6.2891                 4.6681                 0.9854

                     49                     50                     51
                      A                      A                      A
 Frequencies --   1416.0999              1448.5590              1449.2279
 Red. masses --      1.3718                 1.7325                 1.6194
 Frc consts  --      1.6208                 2.1419                 2.0039
 IR Inten    --      6.8785                38.6556                10.1699
 Raman Activ --      9.0166                 6.7667                 6.6678

                     52                     53                     54
                      A                      A                      A
 Frequencies --   1456.2530              1463.4985              1476.5547
 Red. masses --      1.3922                 1.3193                 1.2235
 Frc consts  --      1.7396                 1.6649                 1.5716
 IR Inten    --      1.4965                 0.6600                 1.2071
 Raman Activ --      5.2607                 7.2991                15.1623

                     55                     56                     57
                      A                      A                      A
 Frequencies --   1494.6074              1505.9867              1523.2231
 Red. masses --      1.2909                 1.3627                 1.3875
 Frc consts  --      1.6990                 1.8210                 1.8968
 IR Inten    --      1.8419                10.8097                12.4513
 Raman Activ --      3.2826                 1.1860                 2.6017

                     58                     59                     60
                      A                      A                      A
 Frequencies --   1527.6402              1530.4908              1546.8022
 Red. masses --      1.3624                 1.4620                 1.3869
 Frc consts  --      1.8733                 2.0177                 1.9551
 IR Inten    --      3.1656                 6.2756                22.0322
 Raman Activ --      1.7929                 2.5560                 1.5931

                     61                     62                     63
                      A                      A                      A
 Frequencies --   1572.9331              1574.5252              1584.2817
 Red. masses --      1.5212                 1.6118                 1.4644
 Frc consts  --      2.2175                 2.3543                 2.1656
 IR Inten    --     30.8938                37.1567                12.7152
 Raman Activ --      2.3470                 5.3243                 3.3748

                     64                     65                     66
                      A                      A                      A
 Frequencies --   1614.0788              1627.1336              1628.0831
 Red. masses --      1.2134                 1.0970                 1.0909
 Frc consts  --      1.8625                 1.7112                 1.7037
 IR Inten    --      0.0053                 0.8625                 0.4495
 Raman Activ --      6.4471                 9.2997                24.6396

                     67                     68                     69
                      A                      A                      A
 Frequencies --   1639.3491              1641.3301              1641.5993
 Red. masses --      1.1761                 1.1105                 1.0516
 Frc consts  --      1.8623                 1.7627                 1.6697
 IR Inten    --      6.9759                 4.1256                10.3267
 Raman Activ --      9.9067                 4.6116                15.5604

                     70                     71                     72
                      A                      A                      A
 Frequencies --   1643.8930              1649.5356              1652.7628
 Red. masses --      1.1175                 1.0881                 1.1438
 Frc consts  --      1.7793                 1.7444                 1.8408
 IR Inten    --      4.0478                 2.9774                 9.1707
 Raman Activ --      2.0556                 0.2037                 1.9078

                     73                     74                     75
                      A                      A                      A
 Frequencies --   1658.7230              1660.8947              1670.1366
 Red. masses --      1.0589                 1.1104                 1.1101
 Frc consts  --      1.7166                 1.8048                 1.8244
 IR Inten    --      0.9730                 5.0476                 4.5785
 Raman Activ --     27.0512                 5.3779                 8.2419

                     76                     77                     78
                      A                      A                      A
 Frequencies --   3084.9034              3093.5138              3095.8280
 Red. masses --      1.0750                 1.0735                 1.0740
 Frc consts  --      6.0276                 6.0527                 6.0649
 IR Inten    --     22.6446                84.4051                27.0508
 Raman Activ --     10.0295                58.7320                16.5635

                     79                     80                     81
                      A                      A                      A
 Frequencies --   3110.2184              3126.1681              3191.5983
 Red. masses --      1.0740                 1.0614                 1.0854
 Frc consts  --      6.1211                 6.1114                 6.5143
 IR Inten    --     98.2641               132.2838                18.9140
 Raman Activ --     76.0912               119.8961                39.0833

                     82                     83                     84
                      A                      A                      A
 Frequencies --   3210.9848              3215.1054              3219.5012
 Red. masses --      1.0624                 1.0612                 1.0639
 Frc consts  --      6.4540                 6.4633                 6.4970
 IR Inten    --     27.6337                41.5357                78.4771
 Raman Activ --     55.9450                61.7790               142.4637

                     85                     86                     87
                      A                      A                      A
 Frequencies --   3220.8461              3237.5303              3240.4544
 Red. masses --      1.0630                 1.0788                 1.0854
 Frc consts  --      6.4972                 6.6624                 6.7154
 IR Inten    --      8.8032                22.2108                82.4216
 Raman Activ --     18.3387                 9.5026                30.3982

                     88                     89                     90
                      A                      A                      A
 Frequencies --   3242.9742              3248.5940              3254.5420
 Red. masses --      1.0864                 1.0833                 1.1026
 Frc consts  --      6.7316                 6.7361                 6.8811
 IR Inten    --     61.6389                51.9254                41.9631
 Raman Activ --    110.2940               249.5765                41.7568

                     91                     92                     93
                      A                      A                      A
 Frequencies --   3259.1100              3260.8544              3263.2563
 Red. masses --      1.1065                 1.1037                 1.1062
 Frc consts  --      6.9248                 6.9147                 6.9401
 IR Inten    --     21.8010                19.3641               127.2625
 Raman Activ --     66.5085                72.6805                92.3189

                     94                     95                     96
                      A                      A                      A
 Frequencies --   3279.0240              3280.5304              3733.0746
 Red. masses --      1.0918                 1.1043                 1.0748
 Frc consts  --      6.9162                 7.0023                 8.8245
 IR Inten    --     63.4079                61.1347                 0.5050
 Raman Activ --     63.8270                99.9537                66.8583

 - Thermochemistry -
 -------------------
 Temperature   298.150 Kelvin.  Pressure   1.00000 Atm.
 Atom     1 has atomic number  6 and mass  12.00000

 Molecular mass:   183.17355 amu.
 Principal axes and moments of inertia in atomic units:
                           1         2         3
     Eigenvalues --   782.926444990.228905143.02096
           X            1.00000  -0.00009   0.00231
           Y            0.00009   1.00000   0.00160
           Z           -0.00231  -0.00160   1.00000
 This molecule is an asymmetric top.
 Rotational symmetry number  1.
 Warning -- assumption of classical behavior for rotation
           may cause significant error
 Rotational temperatures (Kelvin)      0.11063     0.01736     0.01684
 Rotational constants (GHZ):           2.30512     0.36165     0.35091
 Zero-point vibrational energy     890881.2 (Joules/Mol)
                                  212.92571 (Kcal/Mol)
 Warning -- explicit consideration of  19 degrees of freedom as
           vibrations may cause significant error
 Vibrational temperatures:     87.90   109.38   129.37   285.59   327.69
          (Kelvin)            352.80   377.15   383.70   402.52   467.47
                              535.77   589.10   601.61   656.29   714.02
                              751.71   775.14   791.98   887.11  1046.69
                             1209.38  1245.00  1285.97  1286.97  1328.61
                             1337.45  1412.71  1439.14  1461.96  1546.90
                             1555.20  1583.85  1619.18  1635.09  1641.60
                             1700.91  1744.84  1748.36  1799.28  1811.58
                             1816.89  1845.13  1854.32  1867.80  1890.49
                             1912.10  1934.95  2002.63  2037.45  2084.15
                             2085.12  2095.22  2105.65  2124.43  2150.41
                             2166.78  2191.58  2197.93  2202.03  2225.50
                             2263.10  2265.39  2279.43  2322.30  2341.08
                             2342.45  2358.66  2361.51  2361.90  2365.20
                             2373.31  2377.96  2386.53  2389.66  2402.95
                             4438.49  4450.88  4454.21  4474.91  4497.86
                             4592.00  4619.89  4625.82  4632.14  4634.08
                             4658.08  4662.29  4665.92  4674.00  4682.56
                             4689.13  4691.64  4695.10  4717.78  4719.95
                             5371.06

 Zero-point correction=                           0.339319 (Hartree/Particle)
 Thermal correction to Energy=                    0.350966
 Thermal correction to Enthalpy=                  0.351910
 Thermal correction to Gibbs Free Energy=         0.301647
 Sum of electronic and zero-point Energies=           -553.882075
 Sum of electronic and thermal Energies=              -553.870427
 Sum of electronic and thermal Enthalpies=            -553.869483
 Sum of electronic and thermal Free Energies=         -553.919746

                     E (Thermal)             CV                S
                      KCal/Mol        Cal/Mol-Kelvin    Cal/Mol-Kelvin
 Total                  220.235             45.976            105.787
 Electronic               0.000              0.000              0.000
 Translational            0.889              2.981             41.522
 Rotational               0.889              2.981             31.375
 Vibrational            218.457             40.014             32.891
 Vibration     1          0.597              1.973              4.422
 Vibration     2          0.599              1.965              3.991
 Vibration     3          0.602              1.956              3.662
 Vibration     4          0.637              1.842              2.147
 Vibration     5          0.651              1.799              1.897
 Vibration     6          0.660              1.771              1.765
 Vibration     7          0.669              1.742              1.648
 Vibration     8          0.672              1.734              1.618
 Vibration     9          0.680              1.711              1.535
 Vibration    10          0.709              1.626              1.285
 Vibration    11          0.744              1.529              1.070
 Vibration    12          0.774              1.450              0.929
 Vibration    13          0.781              1.431              0.898
 Vibration    14          0.814              1.347              0.777
 Vibration    15          0.852              1.258              0.668
 Vibration    16          0.877              1.200              0.604
 Vibration    17          0.894              1.164              0.568
 Vibration    18          0.906              1.139              0.543
 Vibration    19          0.976              0.997              0.422

 Optimization completed.
    -- Stationary point found.
 Normal termination of Gaussian 16 at Thu Jan 26 17:06:44 2023.

 ------------------------------------------------------------------
 #N Geom=AllCheck Guess=TCheck SCRF=Check MP2(Full)/GTBas1 Opt=RCFC
 ------------------------------------------------------------------

 Structure from the checkpoint file:  "/home/arina/opt/gaussian/scr/Gau-618738.chk"
 -------------------
 Title Card Required
 -------------------
 Charge =  0 Multiplicity = 1

 SCF Done:  E(RHF) =  -554.221393232     A.U. after    1 cycles
 E2 =    -0.1854966368D+01 EUMP2 =    -0.55607635960007D+03
 SCF Done:  E(RHF) =  -554.218924340     A.U. after   11 cycles
 E2 =    -0.1860433634D+01 EUMP2 =    -0.55607935797375D+03
 SCF Done:  E(RHF) =  -554.217904185     A.U. after   10 cycles
 E2 =    -0.1861586563D+01 EUMP2 =    -0.55607949074802D+03
 SCF Done:  E(RHF) =  -554.217976568     A.U. after    8 cycles
 E2 =    -0.1861515815D+01 EUMP2 =    -0.55607949238285D+03
 Optimization completed.
    -- Stationary point found.
 Normal termination of Gaussian 16 at Thu Jan 26 17:12:27 2023.

 --------------------------------------------------------------
 #N Geom=AllCheck Guess=TCheck SCRF=Check QCISD(T,FrzG3)/GTBas1
 --------------------------------------------------------------

 Structure from the checkpoint file:  "/home/arina/opt/gaussian/scr/Gau-618738.chk"
 -------------------
 Title Card Required
 -------------------
 Charge =  0 Multiplicity = 1

 SCF Done:  E(RHF) =  -554.217976568     A.U. after    1 cycles
 E2 =    -0.1800864940D+01 EUMP2 =    -0.55601884150816D+03
 Normal termination of Gaussian 16 at Thu Jan 26 20:08:33 2023.

 -------------------------------------------------------------
 #N Geom=AllCheck Guess=TCheck SCRF=Check MP2=FrzG3/GTMP2Large
 -------------------------------------------------------------

 Structure from the checkpoint file:  "/home/arina/opt/gaussian/scr/Gau-618738.chk"
 -------------------
 Title Card Required
 -------------------
 Charge =  0 Multiplicity = 1

                         Standard orientation:
 ---------------------------------------------------------------------
 Center     Atomic      Atomic             Coordinates (Angstroms)
 Number     Number       Type             X           Y           Z
 ---------------------------------------------------------------------
      1          6           0       -3.091553    1.152382   -0.655389
      2          6           0       -1.628178    0.760784   -0.833552
      3          6           0       -1.947669   -1.111897    0.609100
      4          6           0       -3.414247   -0.733158    0.787012
      5          1           0       -1.541502    0.110561   -1.726078
      6          1           0       -1.023168    1.654238   -1.017560
      7          1           0       -3.166335    1.866803    0.171875
      8          1           0       -3.467862    1.643497   -1.559872
      9          1           0       -1.862949   -1.836090   -0.225906
     10          1           0       -1.573651   -1.607161    1.513647
     11          1           0       -4.025271   -1.629560    0.942094
     12          1           0       -3.507007   -0.104200    1.679298
     13          6           0        0.896326   -0.893218   -0.745611
     14          6           0        1.056108    1.155208    0.661915
     15          6           0        2.387055   -1.107681   -0.516893
     16          1           0        0.768952   -0.310695   -1.664200
     17          1           0        0.402368   -1.861453   -0.891515
     18          6           0        2.540185    0.861476    0.835660
     19          1           0        0.940070    1.823810   -0.197258
     20          1           0        0.657501    1.667346    1.544515
     21          1           0        2.833607   -1.613323   -1.380850
     22          1           0        2.538484   -1.770310    0.360815
     23          1           0        3.097644    1.796813    0.960501
     24          1           0        2.697598    0.264059    1.757659
     25          7           0        3.066702    0.170174   -0.336424
     26          7           0       -3.960550    0.017388   -0.343743
     27          1           0       -3.985917   -0.600331   -1.157769
     28          6           0        4.502300   -0.027105   -0.212316
     29          1           0        4.882483   -0.514682   -1.114077
     30          1           0        4.995544    0.943460   -0.111839
     31          1           0        4.776079   -0.647906    0.660160
     32          6           0        0.285277   -0.140897    0.439426
     33          1           0        0.439432   -0.759524    1.337226
     34          7           0       -1.161827    0.096621    0.380599
 ---------------------------------------------------------------------

 SCF Done:  E(RHF) =  -554.394085916     A.U. after   12 cycles
 E2 =    -0.2315587934D+01 EUMP2 =    -0.55670967384986D+03

 The electronic state is 1-A.
 Alpha  occ. eigenvalues --  -15.54397 -15.54010 -15.53673 -11.24717 -11.24506
 Alpha  occ. eigenvalues --  -11.24322 -11.24195 -11.24036 -11.23938 -11.23873
 Alpha  occ. eigenvalues --  -11.23820 -11.21289 -11.21009  -1.24962  -1.23379
 Alpha  occ. eigenvalues --   -1.18471  -1.05975  -1.02050  -1.01594  -0.94368
 Alpha  occ. eigenvalues --   -0.89254  -0.86051  -0.85004  -0.81923  -0.77979
 Alpha  occ. eigenvalues --   -0.75169  -0.68140  -0.64515  -0.63208  -0.63019
 Alpha  occ. eigenvalues --   -0.62374  -0.61909  -0.61484  -0.59812  -0.57781
 Alpha  occ. eigenvalues --   -0.56929  -0.54935  -0.53755  -0.53518  -0.52448
 Alpha  occ. eigenvalues --   -0.50418  -0.49773  -0.49105  -0.48334  -0.47418
 Alpha  occ. eigenvalues --   -0.45870  -0.45623  -0.44508  -0.37044  -0.35927
 Alpha  occ. eigenvalues --   -0.34189
 Alpha virt. eigenvalues --    0.03853   0.04599   0.04768   0.04901   0.06040
 Alpha virt. eigenvalues --    0.06327   0.06406   0.07064   0.07126   0.08291
 Alpha virt. eigenvalues --    0.08493   0.08624   0.09097   0.09399   0.10399

 Mulliken charges:
               1
     1  C   -0.405068
     2  C   -0.007409
     3  C    0.081383
     4  C   -0.324068
     5  H    0.082286
     6  H    0.028100
     7  H    0.086082
     8  H    0.096120
     9  H    0.062637
    10  H    0.039581
    11  H    0.094349
    12  H    0.084012
    13  C    0.003045
    14  C   -0.285759
    15  C   -0.359581
    16  H    0.110001
    17  H    0.025202
    18  C   -0.306073
    19  H    0.106825
    20  H    0.081190
    21  H    0.086076
    22  H    0.075317
    23  H    0.077666
    24  H    0.072092
    25  N    0.091150
    26  N   -0.071232
    27  H    0.144978
    28  C   -0.047425
    29  H    0.061927
    30  H    0.065357
    31  H    0.041046
    32  C   -0.199455
    33  H    0.089476
    34  N    0.220170
 Sum of Mulliken charges =  -0.00000

 Dipole moment (field-independent basis, Debye):
    X=              1.5771    Y=             -1.2145    Z=             -0.2486  Tot=              2.0060
 Quadrupole moment (field-independent basis, Debye-Ang):
   XX=            -92.5646   YY=            -81.0252   ZZ=            -82.3706
   XY=              2.2893   XZ=              3.4551   YZ=              0.3075

 Normal termination of Gaussian 16 at Thu Jan 26 20:47:48 2023.
