 Gaussian 16, Revision A.03,
 Gaussian 16:  ES64L-G16RevA.03 25-Dec-2016

 ----------------------------------------------------------------------
 # opt=(tight) freq B3LYP/6-311++G(3df,3pd) nosymm int=ultrafinegrid sc
 f=(tight,ssd,noincfock,xqc,fdiag,novaracc)
 ----------------------------------------------------------------------

 -------------------
 CAS 222-222-222
 -------------------
 Symbolic Z-matrix:
 Charge =  0 Multiplicity = 1

 SCF Done:  E(RB3LYP) =  -461.271490131     A.U. after   14 cycles
 SCF Done:  E(RB3LYP) =  -461.271915715     A.U. after   10 cycles
 SCF Done:  E(RB3LYP) =  -461.271924720     A.U. after    9 cycles
 SCF Done:  E(RB3LYP) =  -461.271925583     A.U. after    8 cycles
 SCF Done:  E(RB3LYP) =  -461.271925631     A.U. after    7 cycles
 SCF Done:  E(RB3LYP) =  -461.271925637     A.U. after    6 cycles
 Optimization completed.
    -- Stationary point found.
 Normal termination of Gaussian 16 at Tue Jul 20 19:27:28 2021.

 ----------------------------------------------------------------------
 #N Geom=AllCheck Guess=TCheck SCRF=Check GenChk RB3LYP/6-311++G(3df,3p
 d) Freq
 ----------------------------------------------------------------------

 Structure from the checkpoint file:  "/home/artemiy/opt/gaussian/scr/Gau-3330.chk"
 -------------------
 Title Card Required
 -------------------
 Charge =  0 Multiplicity = 1

                          Input orientation:
 ---------------------------------------------------------------------
 Center     Atomic      Atomic             Coordinates (Angstroms)
 Number     Number       Type             X           Y           Z
 ---------------------------------------------------------------------
      1          6           0       -2.741168   -0.255997   -0.000005
      2          6           0       -1.797316   -1.250038   -0.000006
      3          6           0       -0.414330   -0.945551   -0.000005
      4          6           0       -0.023886    0.427041   -0.000002
      5          6           0       -1.017885    1.433425   -0.000001
      6          6           0       -2.347895    1.098301   -0.000002
      7          1           0       -3.100782    1.874840   -0.000002
      8          1           0       -0.711914    2.468970    0.000000
      9          6           0        1.365591    0.732392   -0.000001
     10          6           0        2.306606   -0.267847   -0.000003
     11          6           0        1.905479   -1.619179   -0.000005
     12          6           0        0.578611   -1.956264   -0.000006
     13          1           0        0.273015   -2.993870   -0.000007
     14          1           0        2.663346   -2.390866   -0.000005
     15          1           0        3.360822   -0.017475   -0.000002
     16          8           0        1.698146    2.056711   -0.000000
     17          1           0        2.655240    2.149260    0.000002
     18          1           0       -2.098292   -2.289832   -0.000007
     19          1           0       -3.793157   -0.508211   -0.000005
 ---------------------------------------------------------------------

 SCF Done:  E(RB3LYP) =  -461.271925637     A.U. after    1 cycles

 Alpha  occ. eigenvalues --  -19.16455 -10.24213 -10.18715 -10.18516 -10.17988
 Alpha  occ. eigenvalues --  -10.17686 -10.17660 -10.17613 -10.17557 -10.17481
 Alpha  occ. eigenvalues --  -10.17082  -1.07452  -0.87868  -0.82734  -0.77508
 Alpha  occ. eigenvalues --   -0.74967  -0.72246  -0.64131  -0.62592  -0.60667
 Alpha  occ. eigenvalues --   -0.55013  -0.52429  -0.50882  -0.48513  -0.45681
 Alpha  occ. eigenvalues --   -0.43493  -0.43127  -0.42812  -0.41229  -0.39634
 Alpha  occ. eigenvalues --   -0.37921  -0.37520  -0.34647  -0.34019  -0.32940
 Alpha  occ. eigenvalues --   -0.27621  -0.25418  -0.21389
 Alpha virt. eigenvalues --   -0.04636  -0.02443  -0.01516  -0.00071   0.00369
 Alpha virt. eigenvalues --    0.01786   0.01835   0.02342   0.04176   0.04648
 Alpha virt. eigenvalues --    0.05229   0.05286   0.07052   0.07447   0.07514

 Mulliken charges:
               1
     1  C   -0.271302
     2  C    0.257379
     3  C    0.110234
     4  C    0.014111
     5  C    0.306339
     6  C   -0.303104
     7  H    0.038060
     8  H    0.049432
     9  C    0.123114
    10  C    0.098167
    11  C   -0.044840
    12  C   -0.012379
    13  H    0.008890
    14  H    0.041414
    15  H   -0.015711
    16  O   -0.977217
    17  H    0.513961
    18  H    0.027734
    19  H    0.035720
 Sum of Mulliken charges =  -0.00000

 Dipole moment (field-independent basis, Debye):
    X=              1.1892    Y=             -0.1401    Z=              0.0000  Tot=              1.1974
 Quadrupole moment (field-independent basis, Debye-Ang):
   XX=            -51.4702   YY=            -60.0247   ZZ=            -69.4005
   XY=              2.4288   XZ=              0.0000   YZ=              0.0000

  Exact polarizability: 172.389  -8.082 136.375   0.000   0.000  67.470
 Approx polarizability: 288.243 -14.046 240.055   0.000   0.000 108.160

                      1                      2                      3
                      A                      A                      A
 Frequencies --    139.4242               173.3057               261.0587
 Red. masses --      4.4676                 3.9350                 3.7102
 Frc consts  --      0.0512                 0.0696                 0.1490
 IR Inten    --      0.2474                 4.9948                 5.7279

                      4                      5                      6
                      A                      A                      A
 Frequencies --    285.5935               363.2125               431.1933
 Red. masses --      5.2578                 1.1377                 3.0269
 Frc consts  --      0.2527                 0.0884                 0.3316
 IR Inten    --      6.4508                89.4375                 0.5535

                      7                      8                      9
                      A                      A                      A
 Frequencies --    470.9791               471.9279               487.0599
 Red. masses --      4.3477                 3.3759                 7.2410
 Frc consts  --      0.5682                 0.4430                 1.0121
 IR Inten    --      0.2727                 0.0358                 0.8074

                     10                     11                     12
                      A                      A                      A
 Frequencies --    533.1527               582.6842               584.4113
 Red. masses --      5.9738                 3.2445                 6.5218
 Frc consts  --      1.0005                 0.6490                 1.3124
 IR Inten    --      5.3574                 5.9513                 0.8152

                     13                     14                     15
                      A                      A                      A
 Frequencies --    637.5662               723.7952               739.9969
 Red. masses --      3.3650                 5.5369                 1.4938
 Frc consts  --      0.8059                 1.7090                 0.4820
 IR Inten    --      0.6894                 3.6281                 3.1315

                     16                     17                     18
                      A                      A                      A
 Frequencies --    782.6814               797.2253               800.5297
 Red. masses --      1.9974                 5.4309                 1.5614
 Frc consts  --      0.7209                 2.0337                 0.5895
 IR Inten    --     27.0519                 6.3310                89.4096

                     19                     20                     21
                      A                      A                      A
 Frequencies --    868.9914               886.2194               893.1478
 Red. masses --      1.4473                 4.8484                 1.5484
 Frc consts  --      0.6439                 2.2435                 0.7277
 IR Inten    --      0.3216                11.4728                 0.5443

                     22                     23                     24
                      A                      A                      A
 Frequencies --    975.6205               987.8097              1004.1774
 Red. masses --      1.2838                 1.3536                 1.2734
 Frc consts  --      0.7200                 0.7782                 0.7565
 IR Inten    --      0.0000                 1.8376                 0.0232

                     25                     26                     27
                      A                      A                      A
 Frequencies --   1039.8083              1061.1024              1102.2874
 Red. masses --      2.9393                 2.5780                 2.2583
 Frc consts  --      1.8724                 1.7102                 1.6167
 IR Inten    --     20.7542                45.7938                21.8001

                     28                     29                     30
                      A                      A                      A
 Frequencies --   1166.7813              1172.3108              1189.8099
 Red. masses --      1.4075                 1.3144                 1.1242
 Frc consts  --      1.1290                 1.0643                 0.9376
 IR Inten    --     15.6318                17.5034                 2.3371

                     31                     32                     33
                      A                      A                      A
 Frequencies --   1218.7641              1253.6600              1271.0785
 Red. masses --      1.5436                 1.7693                 1.7255
 Frc consts  --      1.3509                 1.6384                 1.6425
 IR Inten    --     27.7412                13.9656                42.0566

                     34                     35                     36
                      A                      A                      A
 Frequencies --   1301.7278              1386.1422              1406.5078
 Red. masses --      2.3817                 4.9015                 4.5586
 Frc consts  --      2.3779                 5.5488                 5.3133
 IR Inten    --     68.6411                11.3240                39.0468

                     37                     38                     39
                      A                      A                      A
 Frequencies --   1434.3820              1489.7622              1497.5982
 Red. masses --      1.8356                 2.0266                 2.4304
 Frc consts  --      2.2252                 2.6500                 3.2115
 IR Inten    --     20.6692                 4.9357                10.3215

                     40                     41                     42
                      A                      A                      A
 Frequencies --   1551.6698              1615.2846              1637.3196
 Red. masses --      3.5076                 7.1112                 5.0057
 Frc consts  --      4.9758                10.9317                 7.9064
 IR Inten    --     17.0215                50.8615                20.7677

                     43                     44                     45
                      A                      A                      A
 Frequencies --   1667.4215              3154.6474              3163.6636
 Red. masses --      6.2505                 1.0880                 1.0856
 Frc consts  --     10.2389                 6.3796                 6.4018
 IR Inten    --     11.9198                14.8197                 0.4494

                     46                     47                     48
                      A                      A                      A
 Frequencies --   3172.7508              3175.7887              3188.5218
 Red. masses --      1.0881                 1.0897                 1.0951
 Frc consts  --      6.4533                 6.4750                 6.5595
 IR Inten    --      3.7483                14.5186                22.4366

                     49                     50                     51
                      A                      A                      A
 Frequencies --   3190.5717              3209.4167              3832.0808
 Red. masses --      1.0960                 1.0935                 1.0659
 Frc consts  --      6.5738                 6.6359                 9.2226
 IR Inten    --     14.1451                 5.7541                70.9927

 - Thermochemistry -
 -------------------
 Temperature   298.150 Kelvin.  Pressure   1.00000 Atm.
 Atom     1 has atomic number  6 and mass  12.00000

 Molecular mass:   144.05751 amu.
 Principal axes and moments of inertia in atomic units:
                           1         2         3
     Eigenvalues --   923.487981586.896682510.38465
           X            0.99998   0.00561  -0.00000
           Y           -0.00561   0.99998  -0.00000
           Z            0.00000   0.00000   1.00000
 This molecule is an asymmetric top.
 Rotational symmetry number  1.
 Warning -- assumption of classical behavior for rotation
           may cause significant error
 Rotational temperatures (Kelvin)      0.09379     0.05458     0.03450
 Rotational constants (GHZ):           1.95427     1.13728     0.71891
 Zero-point vibrational energy     397355.3 (Joules/Mol)
                                   94.97020 (Kcal/Mol)
 Warning -- explicit consideration of  12 degrees of freedom as
           vibrations may cause significant error
 Vibrational temperatures:    200.60   249.35   375.61   410.91   522.58
          (Kelvin)            620.39   677.63   679.00   700.77   767.09
                              838.35   840.84   917.32  1041.38  1064.69
                             1126.10  1147.03  1151.78  1250.28  1275.07
                             1285.04  1403.70  1421.24  1444.79  1496.05
                             1526.69  1585.95  1678.74  1686.69  1711.87
                             1753.53  1803.74  1828.80  1872.90  1994.35
                             2023.65  2063.76  2143.44  2154.71  2232.51
                             2324.03  2355.74  2399.05  4538.83  4551.81
                             4564.88  4569.25  4587.57  4590.52  4617.63
                             5513.51

 Zero-point correction=                           0.151345 (Hartree/Particle)
 Thermal correction to Energy=                    0.159353
 Thermal correction to Enthalpy=                  0.160297
 Thermal correction to Gibbs Free Energy=         0.118763
 Sum of electronic and zero-point Energies=           -461.120581
 Sum of electronic and thermal Energies=              -461.112573
 Sum of electronic and thermal Enthalpies=            -461.111629
 Sum of electronic and thermal Free Energies=         -461.153163

                     E (Thermal)             CV                S
                      KCal/Mol        Cal/Mol-Kelvin    Cal/Mol-Kelvin
 Total                   99.995             33.508             87.416
 Electronic               0.000              0.000              0.000
 Translational            0.889              2.981             40.806
 Rotational               0.889              2.981             29.688
 Vibrational             98.218             27.546             16.922
 Vibration     1          0.615              1.914              2.812
 Vibration     2          0.627              1.875              2.399
 Vibration     3          0.669              1.744              1.655
 Vibration     4          0.683              1.700              1.500
 Vibration     5          0.737              1.548              1.108
 Vibration     6          0.792              1.402              0.855
 Vibration     7          0.828              1.314              0.735
 Vibration     8          0.829              1.312              0.732
 Vibration     9          0.843              1.279              0.691
 Vibration    10          0.888              1.177              0.580
 Vibration    11          0.940              1.069              0.480
 Vibration    12          0.941              1.065              0.477

 Optimization completed.
    -- Stationary point found.
 Normal termination of Gaussian 16 at Tue Jul 20 22:12:51 2021.
