 Gaussian 16, Revision A.03,
 Gaussian 16:  ES64L-G16RevA.03 25-Dec-2016

 ----------------
 # g3mp2 geom=gic
 ----------------

 -------------------
 CAS 1001-01-1117
 -------------------
 Symbolic Z-matrix:
 Charge =  0 Multiplicity = 1

 SCF Done:  E(RHF) =  -489.205080526     A.U. after   14 cycles
 SCF Done:  E(RHF) =  -489.207119550     A.U. after   12 cycles
 SCF Done:  E(RHF) =  -489.207361494     A.U. after   12 cycles
 SCF Done:  E(RHF) =  -489.207255592     A.U. after   12 cycles
 SCF Done:  E(RHF) =  -489.207471412     A.U. after   12 cycles
 SCF Done:  E(RHF) =  -489.207710901     A.U. after   12 cycles
 SCF Done:  E(RHF) =  -489.207757175     A.U. after   11 cycles
 SCF Done:  E(RHF) =  -489.207766683     A.U. after   11 cycles
 SCF Done:  E(RHF) =  -489.207767780     A.U. after   10 cycles
 Optimization completed.
    -- Stationary point found.
 Normal termination of Gaussian 16 at Sun Feb  5 12:27:22 2023.

 -------------------------------------------------------
 #N Geom=AllCheck Guess=TCheck SCRF=Check HF/GTBas1 Freq
 -------------------------------------------------------

 Structure from the checkpoint file:  "/home/artemiy/opt/gaussian/scr/Gau-175324.chk"
 -------------------
 Title Card Required
 -------------------
 Charge =  0 Multiplicity = 1

 SCF Done:  E(RHF) =  -489.207767780     A.U. after    1 cycles

  Exact polarizability: 113.969   0.000  85.240   0.329  -0.000  29.217
 Approx polarizability:  98.048   0.000  89.375  -0.183   0.001  33.966

                      1                      2                      3
                      A                      A                      A
 Frequencies --     70.6388               124.9244               248.2118
 Red. masses --      7.8763                 5.7052                 6.5898
 Frc consts  --      0.0232                 0.0525                 0.2392
 IR Inten    --      0.1539                 1.0481                 1.2803
 Raman Activ --      0.1379                 1.0695                 1.0152

                      4                      5                      6
                      A                      A                      A
 Frequencies --    319.7967               352.7777               394.3624
 Red. masses --      5.0668                 1.0319                 9.7182
 Frc consts  --      0.3053                 0.0757                 0.8905
 IR Inten    --     12.2299                21.5406                 0.5315
 Raman Activ --      1.7633                 0.8254                 1.1135

                      7                      8                      9
                      A                      A                      A
 Frequencies --    424.5362               463.1151               526.0946
 Red. masses --      3.3452                 3.0824                 1.6137
 Frc consts  --      0.3552                 0.3895                 0.2631
 IR Inten    --      0.0913                 0.0584               307.3566
 Raman Activ --      0.2930                 0.0705                13.4801

                     10                     11                     12
                      A                      A                      A
 Frequencies --    571.0815               583.0884               696.4110
 Red. masses --      2.0594                 6.9241                 5.6940
 Frc consts  --      0.3957                 1.3870                 1.6270
 IR Inten    --    214.9606                 5.1203                10.3247
 Raman Activ --     13.1796                 1.2817                 0.9705

                     13                     14                     15
                      A                      A                      A
 Frequencies --    696.4557               772.4584               861.6734
 Red. masses --      6.9151                 3.0631                 6.4230
 Frc consts  --      1.9762                 1.0769                 2.8098
 IR Inten    --      1.5168                 1.9045                76.1484
 Raman Activ --      6.2871                 0.1481                 4.7875

                     16                     17                     18
                      A                      A                      A
 Frequencies --    894.0108               916.4626               946.8411
 Red. masses --      5.1434                 1.2522                 1.9288
 Frc consts  --      2.4221                 0.6197                 1.0188
 IR Inten    --      3.8594                 0.0777                62.5550
 Raman Activ --     10.8333                 3.8836                 0.0427

                     19                     20                     21
                      A                      A                      A
 Frequencies --    964.6958              1103.5844              1107.5472
 Red. masses --     10.2551                 2.7855                 1.3730
 Frc consts  --      5.6231                 1.9988                 0.9923
 IR Inten    --     35.4112                 0.5681                 0.4815
 Raman Activ --     21.5441                 3.1980                 3.2599

                     22                     23                     24
                      A                      A                      A
 Frequencies --   1110.2109              1172.1042              1226.1958
 Red. masses --      1.3355                 1.5235                 1.4538
 Frc consts  --      0.9698                 1.2332                 1.2879
 IR Inten    --      0.0052                 2.7507                 8.1803
 Raman Activ --      0.1067                 1.0024                 1.0244

                     25                     26                     27
                      A                      A                      A
 Frequencies --   1243.4813              1310.0873              1368.2048
 Red. masses --      2.4448                 1.4236                 3.0242
 Frc consts  --      2.2273                 1.4396                 3.3355
 IR Inten    --    106.5756                23.9230                 1.9245
 Raman Activ --     79.4583                 3.0065                 0.2844

                     28                     29                     30
                      A                      A                      A
 Frequencies --   1423.6820              1462.1343              1607.0394
 Red. masses --      3.3135                 1.3341                 2.8847
 Frc consts  --      3.9570                 1.6804                 4.3893
 IR Inten    --    111.0733                 0.1501                 0.5988
 Raman Activ --     23.0731                 0.4416                 0.5448

                     31                     32                     33
                      A                      A                      A
 Frequencies --   1622.6085              1683.6938              1765.6467
 Red. masses --      9.8793                 2.6028                 7.1211
 Frc consts  --     15.3251                 4.3472                13.0798
 IR Inten    --    638.5841                12.9927                52.8620
 Raman Activ --    312.6338                30.7165                 0.5484

                     34                     35                     36
                      A                      A                      A
 Frequencies --   1794.7220              1841.3006              1851.7708
 Red. masses --      4.3480                 1.2117                11.5758
 Frc consts  --      8.2516                 2.4203                23.3871
 IR Inten    --    134.0780               175.7667               455.8000
 Raman Activ --    142.3686                38.3336                 0.3662

                     37                     38                     39
                      A                      A                      A
 Frequencies --   3370.5549              3371.1567              3435.2912
 Red. masses --      1.0922                 1.0917                 1.0945
 Frc consts  --      7.3104                 7.3098                 7.6104
 IR Inten    --     13.6768                13.2923                 1.3125
 Raman Activ --     65.5505               105.0996               105.1535

                     40                     41                     42
                      A                      A                      A
 Frequencies --   3435.4391              3814.0313              3920.1839
 Red. masses --      1.0942                 1.0487                 1.1009
 Frc consts  --      7.6086                 8.9885                 9.9681
 IR Inten    --      0.0381                54.5865                27.8067
 Raman Activ --     23.2087               172.5382                66.1672

 - Thermochemistry -
 -------------------
 Temperature   298.150 Kelvin.  Pressure   1.00000 Atm.
 Atom     1 has atomic number  6 and mass  12.00000

 Molecular mass:   138.04293 amu.
 Principal axes and moments of inertia in atomic units:
                           1         2         3
     Eigenvalues --   447.805032158.635562605.25956
           X            0.99999   0.00000   0.00317
           Y           -0.00000   1.00000  -0.00001
           Z           -0.00317   0.00001   0.99999
 This molecule is an asymmetric top.
 Rotational symmetry number  1.
 Warning -- assumption of classical behavior for rotation
           may cause significant error
 Rotational temperatures (Kelvin)      0.19342     0.04012     0.03325
 Rotational constants (GHZ):           4.03019     0.83606     0.69273
 Zero-point vibrational energy     340148.0 (Joules/Mol)
                                   81.29733 (Kcal/Mol)
 Warning -- explicit consideration of  11 degrees of freedom as
           vibrations may cause significant error
 Vibrational temperatures:    101.63   179.74   357.12   460.12   507.57
          (Kelvin)            567.40   610.81   666.32   756.93   821.66
                              838.93  1001.98  1002.04  1111.40  1239.76
                             1286.28  1318.59  1362.29  1387.98  1587.81
                             1593.51  1597.35  1686.40  1764.22  1789.09
                             1884.92  1968.54  2048.36  2103.69  2312.17
                             2334.57  2422.46  2540.37  2582.20  2649.22
                             2664.29  4849.48  4850.34  4942.62  4942.83
                             5487.54  5640.27

 Zero-point correction=                           0.129556 (Hartree/Particle)
 Thermal correction to Energy=                    0.137254
 Thermal correction to Enthalpy=                  0.138198
 Thermal correction to Gibbs Free Energy=         0.096637
 Sum of electronic and zero-point Energies=           -489.078212
 Sum of electronic and thermal Energies=              -489.070514
 Sum of electronic and thermal Enthalpies=            -489.069570
 Sum of electronic and thermal Free Energies=         -489.111131

                     E (Thermal)             CV                S
                      KCal/Mol        Cal/Mol-Kelvin    Cal/Mol-Kelvin
 Total                   86.128             29.273             87.472
 Electronic               0.000              0.000              0.000
 Translational            0.889              2.981             40.679
 Rotational               0.889              2.981             29.311
 Vibrational             84.351             23.311             17.482
 Vibration     1          0.598              1.968              4.135
 Vibration     2          0.610              1.928              3.023
 Vibration     3          0.662              1.766              1.743
 Vibration     4          0.706              1.636              1.311
 Vibration     5          0.729              1.570              1.154
 Vibration     6          0.761              1.482              0.984
 Vibration     7          0.787              1.417              0.877
 Vibration     8          0.821              1.332              0.757
 Vibration     9          0.881              1.192              0.596
 Vibration    10          0.927              1.094              0.502
 Vibration    11          0.940              1.068              0.480

 Optimization completed.
    -- Stationary point found.
 Normal termination of Gaussian 16 at Sun Feb  5 12:27:58 2023.

 ------------------------------------------------------------------
 #N Geom=AllCheck Guess=TCheck SCRF=Check MP2(Full)/GTBas1 Opt=RCFC
 ------------------------------------------------------------------

 Structure from the checkpoint file:  "/home/artemiy/opt/gaussian/scr/Gau-175324.chk"
 -------------------
 Title Card Required
 -------------------
 Charge =  0 Multiplicity = 1

 SCF Done:  E(RHF) =  -489.207767780     A.U. after    1 cycles
 E2 =    -0.1489800734D+01 EUMP2 =    -0.49069756851483D+03
 SCF Done:  E(RHF) =  -489.201112501     A.U. after   12 cycles
 E2 =    -0.1504563228D+01 EUMP2 =    -0.49070567572945D+03
 SCF Done:  E(RHF) =  -489.198499950     A.U. after   12 cycles
 E2 =    -0.1507323469D+01 EUMP2 =    -0.49070582341868D+03
 SCF Done:  E(RHF) =  -489.198499480     A.U. after   11 cycles
 E2 =    -0.1507392697D+01 EUMP2 =    -0.49070589217629D+03
 SCF Done:  E(RHF) =  -489.198650527     A.U. after   10 cycles
 E2 =    -0.1507245964D+01 EUMP2 =    -0.49070589649071D+03
 SCF Done:  E(RHF) =  -489.198678326     A.U. after   10 cycles
 E2 =    -0.1507220168D+01 EUMP2 =    -0.49070589849493D+03
 Optimization completed.
    -- Stationary point found.
 Normal termination of Gaussian 16 at Sun Feb  5 12:31:10 2023.

 --------------------------------------------------------------
 #N Geom=AllCheck Guess=TCheck SCRF=Check QCISD(T,FrzG3)/GTBas1
 --------------------------------------------------------------

 Structure from the checkpoint file:  "/home/artemiy/opt/gaussian/scr/Gau-175324.chk"
 -------------------
 Title Card Required
 -------------------
 Charge =  0 Multiplicity = 1

 SCF Done:  E(RHF) =  -489.198678326     A.U. after    1 cycles
 E2 =    -0.1464649068D+01 EUMP2 =    -0.49066332739461D+03
 Normal termination of Gaussian 16 at Sun Feb  5 13:05:32 2023.

 -------------------------------------------------------------
 #N Geom=AllCheck Guess=TCheck SCRF=Check MP2=FrzG3/GTMP2Large
 -------------------------------------------------------------

 Structure from the checkpoint file:  "/home/artemiy/opt/gaussian/scr/Gau-175324.chk"
 -------------------
 Title Card Required
 -------------------
 Charge =  0 Multiplicity = 1

                         Standard orientation:
 ---------------------------------------------------------------------
 Center     Atomic      Atomic             Coordinates (Angstroms)
 Number     Number       Type             X           Y           Z
 ---------------------------------------------------------------------
      1          6           0       -0.025467   -1.214842   -0.004055
      2          6           0       -0.703274    0.000000   -0.007371
      3          6           0       -0.025467    1.214842   -0.004050
      4          6           0        1.362413    1.207412   -0.010898
      5          6           0        2.077777   -0.000000    0.002788
      6          6           0        1.362413   -1.207412   -0.010903
      7          7           0       -2.163631    0.000000    0.004060
      8          8           0       -2.742862   -1.099243    0.007998
      9          8           0       -2.742863    1.099243    0.007983
     10          1           0       -0.583558    2.144243   -0.005736
     11          1           0        1.903022    2.151471   -0.013678
     12          1           0       -0.583558   -2.144243   -0.005746
     13          1           0        1.903022   -2.151471   -0.013689
     14          7           0        3.468239    0.000000   -0.070310
     15          1           0        3.912122    0.836740    0.290841
     16          1           0        3.912122   -0.836740    0.290840
 ---------------------------------------------------------------------

 SCF Done:  E(RHF) =  -489.366440368     A.U. after   14 cycles
 E2 =    -0.1824522470D+01 EUMP2 =    -0.49119096283780D+03

 The electronic state is 1-A.
 Alpha  occ. eigenvalues --  -20.59365 -20.59360 -15.84535 -15.59784 -11.31973
 Alpha  occ. eigenvalues --  -11.29462 -11.27677 -11.27671 -11.25564 -11.25563
 Alpha  occ. eigenvalues --   -1.58013  -1.37770  -1.25960  -1.18100  -1.06996
 Alpha  occ. eigenvalues --   -1.05146  -0.94381  -0.87355  -0.82307  -0.77144
 Alpha  occ. eigenvalues --   -0.73142  -0.72208  -0.70177  -0.70152  -0.64694
 Alpha  occ. eigenvalues --   -0.62991  -0.61891  -0.59220  -0.56302  -0.52722
 Alpha  occ. eigenvalues --   -0.48907  -0.48508  -0.48456  -0.44590  -0.37208
 Alpha  occ. eigenvalues --   -0.33545
 Alpha virt. eigenvalues --    0.02650   0.04024   0.04370   0.04878   0.06484
 Alpha virt. eigenvalues --    0.07822   0.08649   0.09987   0.10223   0.11423
 Alpha virt. eigenvalues --    0.12900   0.14016   0.14224   0.15196   0.15767

 Mulliken charges:
               1
     1  C   -0.024337
     2  C   -0.153878
     3  C   -0.024335
     4  C   -0.058653
     5  C   -0.292365
     6  C   -0.058655
     7  N    0.019716
     8  O   -0.157713
     9  O   -0.157713
    10  H    0.252174
    11  H    0.151557
    12  H    0.252174
    13  H    0.151557
    14  N   -0.301511
    15  H    0.200991
    16  H    0.200991
 Sum of Mulliken charges =  -0.00000

 Dipole moment (field-independent basis, Debye):
    X=              7.0013    Y=             -0.0000    Z=              1.0239  Tot=              7.0758
 Quadrupole moment (field-independent basis, Debye-Ang):
   XX=            -62.2688   YY=            -52.7361   ZZ=            -60.9999
   XY=             -0.0000   XZ=              4.6753   YZ=              0.0001

 Normal termination of Gaussian 16 at Sun Feb  5 13:13:50 2023.
