 Gaussian 16, Revision A.03,
 Gaussian 16:  ES64L-G16RevA.03 25-Dec-2016

 ----------------
 # g3mp2 geom=gic
 ----------------

 -------------------
 CAS 567-22-1
 -------------------
 Symbolic Z-matrix:
 Charge =  0 Multiplicity = 1

 SCF Done:  E(RHF) =  -509.030467988     A.U. after   15 cycles
 SCF Done:  E(RHF) =  -509.032374276     A.U. after   13 cycles
 SCF Done:  E(RHF) =  -509.032474568     A.U. after   12 cycles
 SCF Done:  E(RHF) =  -509.032451092     A.U. after   11 cycles
 SCF Done:  E(RHF) =  -509.032470164     A.U. after   11 cycles
 SCF Done:  E(RHF) =  -509.032496360     A.U. after   11 cycles
 SCF Done:  E(RHF) =  -509.032503316     A.U. after   10 cycles
 Optimization completed.
    -- Stationary point found.
 Normal termination of Gaussian 16 at Sat Feb  4 13:13:05 2023.

 -------------------------------------------------------
 #N Geom=AllCheck Guess=TCheck SCRF=Check HF/GTBas1 Freq
 -------------------------------------------------------

 Structure from the checkpoint file:  "/home/artemiy/opt/gaussian/scr/Gau-46393.chk"
 -------------------
 Title Card Required
 -------------------
 Charge =  0 Multiplicity = 1

 SCF Done:  E(RHF) =  -509.032503316     A.U. after    1 cycles

  Exact polarizability: 101.096   1.561  83.090  -0.001   0.002  27.902
 Approx polarizability:  89.861   0.720  87.520  -0.000   0.002  32.544

                      1                      2                      3
                      A                      A                      A
 Frequencies --     67.3240               128.5723               251.9603
 Red. masses --      8.0221                 7.6029                 8.1124
 Frc consts  --      0.0214                 0.0740                 0.3034
 IR Inten    --      0.2957                 1.9293                 3.7798
 Raman Activ --      0.1181                 0.4117                 0.7047

                      4                      5                      6
                      A                      A                      A
 Frequencies --    331.6894               383.7785               393.7170
 Red. masses --      4.9947                 1.1549                11.1803
 Frc consts  --      0.3238                 0.1002                 1.0211
 IR Inten    --      8.3827               145.8401                 0.4199
 Raman Activ --      1.8162                 2.5805                 2.2136

                      7                      8                      9
                      A                      A                      A
 Frequencies --    447.3347               466.0014               554.2920
 Red. masses --      4.5878                 3.0708                 2.8263
 Frc consts  --      0.5409                 0.3929                 0.5116
 IR Inten    --     10.2067                 0.0702                 6.3509
 Raman Activ --      0.8286                 0.0444                 0.0774

                     10                     11                     12
                      A                      A                      A
 Frequencies --    583.3472               692.8193               696.1949
 Red. masses --      6.7880                 7.4163                 6.9991
 Frc consts  --      1.3610                 2.0974                 1.9987
 IR Inten    --      4.8407                35.7299                 1.7443
 Raman Activ --      0.8366                 0.5537                 6.1985

                     13                     14                     15
                      A                      A                      A
 Frequencies --    768.3268               860.7052               897.0005
 Red. masses --      3.1693                 6.3153                 6.3216
 Frc consts  --      1.1023                 2.7565                 2.9968
 IR Inten    --      3.0959                69.4881                 0.0320
 Raman Activ --      0.0132                 4.2430                 8.7791

                     16                     17                     18
                      A                      A                      A
 Frequencies --    916.2348               957.7964               967.1383
 Red. masses --      1.2920                 1.7795                10.0701
 Frc consts  --      0.6390                 0.9618                 5.5496
 IR Inten    --      4.8836                53.7166                44.5586
 Raman Activ --      3.2363                 0.2285                20.5551

                     19                     20                     21
                      A                      A                      A
 Frequencies --   1101.6778              1105.6276              1114.9169
 Red. masses --      1.3630                 2.7234                 1.3349
 Frc consts  --      0.9746                 1.9614                 0.9777
 IR Inten    --      0.5236                 0.0777                 0.0021
 Raman Activ --      2.2237                 1.7466                 0.5119

                     22                     23                     24
                      A                      A                      A
 Frequencies --   1210.8407              1242.3976              1263.5004
 Red. masses --      1.4406                 2.5879                 2.0548
 Frc consts  --      1.2445                 2.3536                 1.9327
 IR Inten    --      7.3117               119.5317                51.1942
 Raman Activ --      1.5936                45.2585                 2.1545

                     25                     26                     27
                      A                      A                      A
 Frequencies --   1298.4376              1385.7138              1425.4137
 Red. masses --      1.4177                 1.8597                 4.0470
 Frc consts  --      1.4082                 2.1040                 4.8447
 IR Inten    --     38.0929                78.5465               150.0211
 Raman Activ --      3.5987                 3.4916                11.8138

                     28                     29                     30
                      A                      A                      A
 Frequencies --   1464.8279              1606.9869              1630.9932
 Red. masses --      1.3404                 2.9007                 9.3349
 Frc consts  --      1.6946                 4.4135                14.6307
 IR Inten    --     51.3817                96.2081               449.6256
 Raman Activ --      1.5248                 6.1285               172.8730

                     31                     32                     33
                      A                      A                      A
 Frequencies --   1686.9101              1780.3451              1802.2931
 Red. masses --      2.7674                 6.9356                 5.6384
 Frc consts  --      4.6399                12.9522                10.7908
 IR Inten    --     22.1984                83.7722               145.2733
 Raman Activ --     21.1132                 9.1277                89.3645

                     34                     35                     36
                      A                      A                      A
 Frequencies --   1859.9676              3363.8274              3404.5903
 Red. masses --     11.2239                 1.0924                 1.0926
 Frc consts  --     22.8773                 7.2831                 7.4618
 IR Inten    --    448.2331                13.3676                 2.5148
 Raman Activ --      0.5415                91.1630                83.5167

                     37                     38                     39
                      A                      A                      A
 Frequencies --   3437.5005              3438.4797              4108.1497
 Red. masses --      1.0944                 1.0949                 1.0669
 Frc consts  --      7.6192                 7.6269                10.6084
 IR Inten    --      1.3836                 1.0404               117.3008
 Raman Activ --     68.6783                61.6054               101.8067

 - Thermochemistry -
 -------------------
 Temperature   298.150 Kelvin.  Pressure   1.00000 Atm.
 Atom     1 has atomic number  6 and mass  12.00000

 Molecular mass:   139.02694 amu.
 Principal axes and moments of inertia in atomic units:
                           1         2         3
     Eigenvalues --   445.486412159.706132605.19254
           X            0.99998   0.00621   0.00001
           Y           -0.00621   0.99998  -0.00003
           Z           -0.00001   0.00003   1.00000
 This molecule is an asymmetric top.
 Rotational symmetry number  1.
 Warning -- assumption of classical behavior for rotation
           may cause significant error
 Rotational temperatures (Kelvin)      0.19443     0.04010     0.03325
 Rotational constants (GHZ):           4.05117     0.83564     0.69275
 Zero-point vibrational energy     305631.7 (Joules/Mol)
                                   73.04773 (Kcal/Mol)
 Warning -- explicit consideration of  10 degrees of freedom as
           vibrations may cause significant error
 Vibrational temperatures:     96.86   184.99   362.51   477.23   552.17
          (Kelvin)            566.47   643.61   670.47   797.50   839.31
                              996.81  1001.67  1105.45  1238.36  1290.58
                             1318.26  1378.06  1391.50  1585.07  1590.75
                             1604.12  1742.13  1787.53  1817.90  1868.16
                             1993.73  2050.85  2107.56  2312.10  2346.64
                             2427.09  2561.52  2593.10  2676.08  4839.80
                             4898.45  4945.80  4947.21  5910.71

 Zero-point correction=                           0.116409 (Hartree/Particle)
 Thermal correction to Energy=                    0.123832
 Thermal correction to Enthalpy=                  0.124776
 Thermal correction to Gibbs Free Energy=         0.083603
 Sum of electronic and zero-point Energies=           -508.916094
 Sum of electronic and thermal Energies=              -508.908671
 Sum of electronic and thermal Enthalpies=            -508.907727
 Sum of electronic and thermal Free Energies=         -508.948900

                     E (Thermal)             CV                S
                      KCal/Mol        Cal/Mol-Kelvin    Cal/Mol-Kelvin
 Total                   77.706             27.884             86.656
 Electronic               0.000              0.000              0.000
 Translational            0.889              2.981             40.700
 Rotational               0.889              2.981             29.307
 Vibrational             75.928             21.923             16.649
 Vibration     1          0.598              1.970              4.230
 Vibration     2          0.611              1.925              2.967
 Vibration     3          0.664              1.759              1.717
 Vibration     4          0.714              1.612              1.252
 Vibration     5          0.753              1.505              1.024
 Vibration     6          0.761              1.484              0.986
 Vibration     7          0.806              1.367              0.804
 Vibration     8          0.823              1.325              0.749
 Vibration     9          0.910              1.130              0.535
 Vibration    10          0.940              1.067              0.479

 Optimization completed.
    -- Stationary point found.
 Normal termination of Gaussian 16 at Sat Feb  4 13:13:40 2023.

 ------------------------------------------------------------------
 #N Geom=AllCheck Guess=TCheck SCRF=Check MP2(Full)/GTBas1 Opt=RCFC
 ------------------------------------------------------------------

 Structure from the checkpoint file:  "/home/artemiy/opt/gaussian/scr/Gau-46393.chk"
 -------------------
 Title Card Required
 -------------------
 Charge =  0 Multiplicity = 1

 SCF Done:  E(RHF) =  -509.032503316     A.U. after    1 cycles
 E2 =    -0.1502654529D+01 EUMP2 =    -0.51053515784475D+03
 SCF Done:  E(RHF) =  -509.025259950     A.U. after   14 cycles
 E2 =    -0.1518652955D+01 EUMP2 =    -0.51054391290497D+03
 SCF Done:  E(RHF) =  -509.022724666     A.U. after   12 cycles
 E2 =    -0.1521363368D+01 EUMP2 =    -0.51054408803420D+03
 SCF Done:  E(RHF) =  -509.022744333     A.U. after    9 cycles
 E2 =    -0.1521345966D+01 EUMP2 =    -0.51054409029882D+03
 Optimization completed.
    -- Stationary point found.
 Normal termination of Gaussian 16 at Sat Feb  4 13:15:43 2023.

 --------------------------------------------------------------
 #N Geom=AllCheck Guess=TCheck SCRF=Check QCISD(T,FrzG3)/GTBas1
 --------------------------------------------------------------

 Structure from the checkpoint file:  "/home/artemiy/opt/gaussian/scr/Gau-46393.chk"
 -------------------
 Title Card Required
 -------------------
 Charge =  0 Multiplicity = 1

 SCF Done:  E(RHF) =  -509.022744333     A.U. after    1 cycles
 E2 =    -0.1479516521D+01 EUMP2 =    -0.51050226085373D+03
 Normal termination of Gaussian 16 at Sat Feb  4 13:47:29 2023.

 -------------------------------------------------------------
 #N Geom=AllCheck Guess=TCheck SCRF=Check MP2=FrzG3/GTMP2Large
 -------------------------------------------------------------

 Structure from the checkpoint file:  "/home/artemiy/opt/gaussian/scr/Gau-46393.chk"
 -------------------
 Title Card Required
 -------------------
 Charge =  0 Multiplicity = 1

                         Standard orientation:
 ---------------------------------------------------------------------
 Center     Atomic      Atomic             Coordinates (Angstroms)
 Number     Number       Type             X           Y           Z
 ---------------------------------------------------------------------
      1          6           0        0.009951   -1.213215   -0.000053
      2          6           0        0.686765    0.000605   -0.000007
      3          6           0        0.016140    1.221264    0.000053
      4          6           0       -1.371634    1.221288    0.000066
      5          6           0       -2.073120    0.011650    0.000021
      6          6           0       -1.380856   -1.202281   -0.000038
      7          1           0        0.566998   -2.143172   -0.000098
      8          1           0       -1.925889   -2.144511   -0.000074
      9          7           0        2.150201   -0.005852   -0.000022
     10          8           0        2.723066   -1.107698   -0.000071
     11          8           0        2.731948    1.091228    0.000016
     12          1           0        0.580003    2.147078    0.000087
     13          1           0       -1.932362    2.150993    0.000112
     14          8           0       -3.437076    0.091942    0.000038
     15          1           0       -3.807141   -0.809055    0.000004
 ---------------------------------------------------------------------

 SCF Done:  E(RHF) =  -509.198822085     A.U. after   15 cycles
 E2 =    -0.1849798092D+01 EUMP2 =    -0.51104862017651D+03

 The electronic state is 1-A.
 Alpha  occ. eigenvalues --  -20.62612 -20.60159 -20.60127 -15.85275 -11.34672
 Alpha  occ. eigenvalues --  -11.30550 -11.28637 -11.28331 -11.26852 -11.26155
 Alpha  occ. eigenvalues --   -1.58796  -1.43819  -1.38575  -1.20092  -1.08962
 Alpha  occ. eigenvalues --   -1.06145  -0.95833  -0.88720  -0.83483  -0.78007
 Alpha  occ. eigenvalues --   -0.76474  -0.72549  -0.70914  -0.69141  -0.65646
 Alpha  occ. eigenvalues --   -0.63307  -0.62302  -0.61781  -0.59035  -0.53456
 Alpha  occ. eigenvalues --   -0.52132  -0.49607  -0.49197  -0.45245  -0.37952
 Alpha  occ. eigenvalues --   -0.35877
 Alpha virt. eigenvalues --    0.02651   0.03777   0.04382   0.04913   0.07098
 Alpha virt. eigenvalues --    0.08067   0.08076   0.10349   0.11032   0.13394
 Alpha virt. eigenvalues --    0.13689   0.13919   0.14182   0.14770   0.15262

 Mulliken charges:
               1
     1  C   -0.039270
     2  C   -0.050599
     3  C   -0.029632
     4  C   -0.284671
     5  C   -0.237047
     6  C    0.166108
     7  H    0.253184
     8  H    0.133204
     9  N    0.013563
    10  O   -0.154650
    11  O   -0.148050
    12  H    0.252030
    13  H    0.192135
    14  O   -0.358149
    15  H    0.291842
 Sum of Mulliken charges =  -0.00000

 Dipole moment (field-independent basis, Debye):
    X=             -5.4429    Y=             -1.3918    Z=             -0.0000  Tot=              5.6180
 Quadrupole moment (field-independent basis, Debye-Ang):
   XX=            -67.8005   YY=            -51.5124   ZZ=            -59.3411
   XY=              6.2723   XZ=              0.0003   YZ=              0.0003

 Normal termination of Gaussian 16 at Sat Feb  4 13:55:14 2023.
